  14  14   0   0
  0.2410714E+03  0.1500000E-08  0.1500000E-08  0.1500000E-08  0.2000000E-16
   1.0000000000000000E-004
  CAR 
 vibration                               
      3.14117219    -31.30529668  301     -2.00426011      1.00000000
    -31.305  0.0000E+00  0.0000E+00  0.0000E+00  0.0000E+00
    -31.190  0.0000E+00  0.0000E+00  0.0000E+00  0.0000E+00
    -31.076  0.0000E+00  0.0000E+00  0.0000E+00  0.0000E+00
    -30.961  0.0000E+00  0.0000E+00  0.0000E+00  0.0000E+00
    -30.846  0.0000E+00  0.0000E+00  0.0000E+00  0.0000E+00
    -30.731  0.0000E+00  0.0000E+00  0.0000E+00  0.0000E+00
    -30.616  0.0000E+00  0.0000E+00  0.0000E+00  0.0000E+00
    -30.502  0.0000E+00  0.0000E+00  0.0000E+00  0.0000E+00
    -30.387  0.4386E-15  0.0000E+00  0.5037E-16  0.0000E+00
    -30.272  0.1738E-12  0.6839E-16  0.2001E-13  0.7853E-17
    -30.157  0.3619E-10  0.3318E-13  0.4175E-11  0.3818E-14
    -30.042  0.3951E-08  0.8321E-11  0.4578E-09  0.9592E-12
    -29.927  0.2268E-06  0.1094E-08  0.2650E-07  0.1265E-09
    -29.813  0.6867E-05  0.7551E-07  0.8150E-06  0.8797E-08
    -29.698  0.1100E-03  0.2747E-05  0.1345E-04  0.3243E-06
    -29.583  0.9363E-03  0.5285E-04  0.1210E-03  0.6392E-05
    -29.468  0.4246E-02  0.5394E-03  0.6085E-03  0.6832E-04
    -29.353  0.1029E-01  0.2931E-02  0.1791E-02  0.4049E-03
    -29.239  0.1336E-01  0.8506E-02  0.3325E-02  0.1382E-02
    -29.124  0.9297E-02  0.1322E-01  0.4392E-02  0.2899E-02
    -29.009  0.3463E-02  0.1100E-01  0.4790E-02  0.4162E-02
    -28.894  0.6890E-03  0.4905E-02  0.4869E-02  0.4726E-02
    -28.779  0.7303E-04  0.1169E-02  0.4878E-02  0.4860E-02
    -28.664  0.4109E-05  0.1486E-03  0.4878E-02  0.4877E-02
    -28.550  0.1223E-06  0.1004E-04  0.4878E-02  0.4878E-02
    -28.435  0.1918E-08  0.3590E-06  0.4878E-02  0.4878E-02
    -28.320  0.1581E-10  0.6773E-08  0.4878E-02  0.4878E-02
    -28.205  0.6835E-13  0.6721E-10  0.4878E-02  0.4878E-02
    -28.090  0.1556E-15  0.3499E-12  0.4878E-02  0.4878E-02
    -27.975  0.0000E+00  0.9528E-15  0.4878E-02  0.4878E-02
    -27.861  0.0000E+00  0.0000E+00  0.4878E-02  0.4878E-02
    -27.746  0.0000E+00  0.0000E+00  0.4878E-02  0.4878E-02
    -27.631  0.0000E+00  0.0000E+00  0.4878E-02  0.4878E-02
    -27.516  0.0000E+00  0.0000E+00  0.4878E-02  0.4878E-02
    -27.401  0.0000E+00  0.0000E+00  0.4878E-02  0.4878E-02
    -27.287  0.0000E+00  0.0000E+00  0.4878E-02  0.4878E-02
    -27.172  0.0000E+00  0.0000E+00  0.4878E-02  0.4878E-02
    -27.057  0.0000E+00  0.0000E+00  0.4878E-02  0.4878E-02
    -26.942  0.0000E+00  0.0000E+00  0.4878E-02  0.4878E-02
    -26.827  0.0000E+00  0.0000E+00  0.4878E-02  0.4878E-02
    -26.712  0.0000E+00  0.0000E+00  0.4878E-02  0.4878E-02
    -26.598  0.0000E+00  0.0000E+00  0.4878E-02  0.4878E-02
    -26.483  0.0000E+00  0.0000E+00  0.4878E-02  0.4878E-02
    -26.368  0.0000E+00  0.0000E+00  0.4878E-02  0.4878E-02
    -26.253  0.0000E+00  0.0000E+00  0.4878E-02  0.4878E-02
    -26.138  0.0000E+00  0.0000E+00  0.4878E-02  0.4878E-02
    -26.024  0.0000E+00  0.0000E+00  0.4878E-02  0.4878E-02
    -25.909  0.0000E+00  0.0000E+00  0.4878E-02  0.4878E-02
    -25.794  0.0000E+00  0.0000E+00  0.4878E-02  0.4878E-02
    -25.679  0.0000E+00  0.0000E+00  0.4878E-02  0.4878E-02
    -25.564  0.0000E+00  0.0000E+00  0.4878E-02  0.4878E-02
    -25.449  0.0000E+00  0.0000E+00  0.4878E-02  0.4878E-02
    -25.335  0.0000E+00  0.0000E+00  0.4878E-02  0.4878E-02
    -25.220  0.0000E+00  0.0000E+00  0.4878E-02  0.4878E-02
    -25.105  0.0000E+00  0.0000E+00  0.4878E-02  0.4878E-02
    -24.990  0.0000E+00  0.0000E+00  0.4878E-02  0.4878E-02
    -24.875  0.0000E+00  0.0000E+00  0.4878E-02  0.4878E-02
    -24.760  0.0000E+00  0.0000E+00  0.4878E-02  0.4878E-02
    -24.646  0.0000E+00  0.0000E+00  0.4878E-02  0.4878E-02
    -24.531  0.0000E+00  0.0000E+00  0.4878E-02  0.4878E-02
    -24.416  0.0000E+00  0.0000E+00  0.4878E-02  0.4878E-02
    -24.301  0.0000E+00  0.0000E+00  0.4878E-02  0.4878E-02
    -24.186  0.0000E+00  0.0000E+00  0.4878E-02  0.4878E-02
    -24.072  0.0000E+00  0.0000E+00  0.4878E-02  0.4878E-02
    -23.957  0.0000E+00  0.0000E+00  0.4878E-02  0.4878E-02
    -23.842  0.0000E+00  0.0000E+00  0.4878E-02  0.4878E-02
    -23.727  0.0000E+00  0.0000E+00  0.4878E-02  0.4878E-02
    -23.612  0.0000E+00  0.0000E+00  0.4878E-02  0.4878E-02
    -23.497  0.0000E+00  0.0000E+00  0.4878E-02  0.4878E-02
    -23.383  0.0000E+00  0.0000E+00  0.4878E-02  0.4878E-02
    -23.268  0.0000E+00  0.0000E+00  0.4878E-02  0.4878E-02
    -23.153  0.0000E+00  0.0000E+00  0.4878E-02  0.4878E-02
    -23.038  0.0000E+00  0.0000E+00  0.4878E-02  0.4878E-02
    -22.923  0.0000E+00  0.0000E+00  0.4878E-02  0.4878E-02
    -22.809  0.4717E-17  0.0000E+00  0.4878E-02  0.4878E-02
    -22.694  0.3000E-14  0.7735E-15  0.4878E-02  0.4878E-02
    -22.579  0.9757E-12  0.2894E-12  0.4878E-02  0.4878E-02
    -22.464  0.1662E-09  0.5683E-10  0.4878E-02  0.4878E-02
    -22.349  0.1486E-07  0.5853E-08  0.4878E-02  0.4878E-02
    -22.234  0.6994E-06  0.3170E-06  0.4878E-02  0.4878E-02
    -22.120  0.1738E-04  0.9060E-05  0.4880E-02  0.4879E-02
    -22.005  0.2287E-03  0.1371E-03  0.4906E-02  0.4895E-02
    -21.890  0.1601E-02  0.1102E-02  0.5090E-02  0.5021E-02
    -21.775  0.5975E-02  0.4721E-02  0.5776E-02  0.5563E-02
    -21.660  0.1193E-01  0.1081E-01  0.7146E-02  0.6805E-02
    -21.545  0.1277E-01  0.1327E-01  0.8612E-02  0.8329E-02
    -21.431  0.7317E-02  0.8723E-02  0.9452E-02  0.9330E-02
    -21.316  0.2244E-02  0.3070E-02  0.9710E-02  0.9683E-02
    -21.201  0.3675E-03  0.5772E-03  0.9752E-02  0.9749E-02
    -21.086  0.3202E-04  0.5778E-04  0.9756E-02  0.9756E-02
    -20.971  0.1479E-05  0.3069E-05  0.9756E-02  0.9756E-02
    -20.857  0.3610E-07  0.8620E-07  0.9756E-02  0.9756E-02
    -20.742  0.4640E-09  0.1276E-08  0.9756E-02  0.9756E-02
    -20.627  0.3132E-11  0.9923E-11  0.9756E-02  0.9756E-02
    -20.512  0.1107E-13  0.4045E-13  0.9756E-02  0.9756E-02
    -20.397  0.1887E-16  0.8490E-16  0.9756E-02  0.9756E-02
    -20.282  0.0000E+00  0.0000E+00  0.9756E-02  0.9756E-02
    -20.168  0.0000E+00  0.0000E+00  0.9756E-02  0.9756E-02
    -20.053  0.6179E-15  0.2358E-16  0.9756E-02  0.9756E-02
    -19.938  0.2395E-12  0.1419E-13  0.9756E-02  0.9756E-02
    -19.823  0.4877E-10  0.4152E-11  0.9756E-02  0.9756E-02
    -19.708  0.5239E-08  0.6384E-09  0.9756E-02  0.9756E-02
    -19.593  0.2985E-06  0.5170E-07  0.9756E-02  0.9756E-02
    -19.479  0.9077E-05  0.2211E-05  0.9757E-02  0.9756E-02
    -19.364  0.1485E-03  0.5012E-04  0.9774E-02  0.9762E-02
    -19.249  0.1318E-02  0.6043E-03  0.9926E-02  0.9831E-02
    -19.134  0.6409E-02  0.3888E-02  0.1066E-01  0.1028E-01
    -19.019  0.1721E-01  0.1340E-01  0.1264E-01  0.1182E-01
    -18.905  0.2569E-01  0.2478E-01  0.1559E-01  0.1466E-01
    -18.790  0.2137E-01  0.2465E-01  0.1804E-01  0.1749E-01
    -18.675  0.9893E-02  0.1318E-01  0.1918E-01  0.1901E-01
    -18.560  0.2536E-02  0.3783E-02  0.1947E-01  0.1944E-01
    -18.445  0.3574E-03  0.5814E-03  0.1951E-01  0.1951E-01
    -18.330  0.2742E-04  0.4769E-04  0.1951E-01  0.1951E-01
    -18.216  0.1135E-05  0.2081E-05  0.1951E-01  0.1951E-01
    -18.101  0.4673E-07  0.4810E-07  0.1951E-01  0.1951E-01
    -17.986  0.9587E-06  0.5945E-09  0.1951E-01  0.1951E-01
    -17.871  0.2248E-04  0.9679E-09  0.1951E-01  0.1951E-01
    -17.756  0.2796E-03  0.6776E-07  0.1955E-01  0.1951E-01
    -17.642  0.1849E-02  0.2509E-05  0.1976E-01  0.1951E-01
    -17.527  0.6524E-02  0.4912E-04  0.2051E-01  0.1952E-01
    -17.412  0.1232E-01  0.5102E-03  0.2192E-01  0.1958E-01
    -17.297  0.1246E-01  0.2821E-02  0.2335E-01  0.1990E-01
    -17.182  0.6750E-02  0.8330E-02  0.2413E-01  0.2086E-01
    -17.067  0.1957E-02  0.1317E-01  0.2435E-01  0.2237E-01
    -16.953  0.3028E-03  0.1115E-01  0.2439E-01  0.2365E-01
    -16.838  0.2492E-04  0.5058E-02  0.2439E-01  0.2423E-01
    -16.723  0.1126E-05  0.1227E-02  0.2439E-01  0.2437E-01
    -16.608  0.1594E-05  0.1587E-03  0.2439E-01  0.2439E-01
    -16.493  0.3360E-04  0.1307E-04  0.2439E-01  0.2439E-01
    -16.378  0.3814E-03  0.4392E-04  0.2444E-01  0.2440E-01
    -16.264  0.2304E-02  0.4652E-03  0.2470E-01  0.2445E-01
    -16.149  0.7429E-02  0.2646E-02  0.2556E-01  0.2475E-01
    -16.034  0.1282E-01  0.8042E-02  0.2703E-01  0.2568E-01
    -15.919  0.1193E-01  0.1313E-01  0.2840E-01  0.2718E-01
    -15.804  0.6603E-02  0.1197E-01  0.2916E-01  0.2856E-01
    -15.690  0.5162E-02  0.8395E-02  0.2975E-01  0.2952E-01
    -15.575  0.9715E-02  0.1007E-01  0.3086E-01  0.3068E-01
    -15.460  0.1340E-01  0.1345E-01  0.3240E-01  0.3222E-01
    -15.345  0.1011E-01  0.1081E-01  0.3356E-01  0.3346E-01
    -15.230  0.4087E-02  0.4708E-02  0.3403E-01  0.3400E-01
    -15.115  0.8834E-03  0.1097E-02  0.3413E-01  0.3413E-01
    -15.001  0.1017E-03  0.1362E-03  0.3415E-01  0.3415E-01
    -14.886  0.6224E-05  0.8991E-05  0.3415E-01  0.3415E-01
    -14.771  0.2042E-06  0.3145E-06  0.3415E-01  0.3415E-01
    -14.656  0.1680E-06  0.3543E-07  0.3415E-01  0.3415E-01
    -14.541  0.5260E-05  0.1253E-05  0.3415E-01  0.3415E-01
    -14.427  0.8898E-04  0.2798E-04  0.3416E-01  0.3415E-01
    -14.312  0.7992E-03  0.3312E-03  0.3425E-01  0.3419E-01
    -14.197  0.3824E-02  0.2085E-02  0.3469E-01  0.3443E-01
    -14.082  0.9780E-02  0.7009E-02  0.3581E-01  0.3523E-01
    -13.967  0.1339E-01  0.1261E-01  0.3735E-01  0.3668E-01
    -13.852  0.9826E-02  0.1215E-01  0.3848E-01  0.3807E-01
    -13.738  0.3861E-02  0.6270E-02  0.3892E-01  0.3879E-01
    -13.623  0.8106E-03  0.1731E-02  0.3901E-01  0.3899E-01
    -13.508  0.9069E-04  0.2551E-03  0.3902E-01  0.3902E-01
    -13.393  0.5387E-05  0.1999E-04  0.3902E-01  0.3902E-01
    -13.278  0.1695E-06  0.8299E-06  0.3902E-01  0.3902E-01
    -13.163  0.1998E-07  0.2558E-07  0.3902E-01  0.3902E-01
    -13.049  0.7906E-06  0.3868E-06  0.3902E-01  0.3902E-01
    -12.934  0.1921E-04  0.1067E-04  0.3903E-01  0.3903E-01
    -12.819  0.2473E-03  0.1560E-03  0.3906E-01  0.3904E-01
    -12.704  0.1693E-02  0.1212E-02  0.3925E-01  0.3918E-01
    -12.589  0.6191E-02  0.5019E-02  0.3996E-01  0.3976E-01
    -12.475  0.1217E-01  0.1115E-01  0.4136E-01  0.4104E-01
    -12.360  0.1343E-01  0.1358E-01  0.4290E-01  0.4260E-01
    -12.245  0.1085E-01  0.1076E-01  0.4415E-01  0.4383E-01
    -12.130  0.1182E-01  0.1043E-01  0.4550E-01  0.4503E-01
    -12.015  0.1373E-01  0.1341E-01  0.4708E-01  0.4657E-01
    -11.900  0.9942E-02  0.1179E-01  0.4822E-01  0.4792E-01
    -11.786  0.3931E-02  0.5731E-02  0.4867E-01  0.4858E-01
    -11.671  0.8327E-03  0.1495E-02  0.4877E-01  0.4875E-01
    -11.556  0.9783E-04  0.2106E-03  0.4878E-01  0.4878E-01
    -11.441  0.7487E-04  0.6427E-04  0.4879E-01  0.4879E-01
    -11.326  0.6620E-03  0.5088E-03  0.4886E-01  0.4884E-01
    -11.212  0.3370E-02  0.2814E-02  0.4925E-01  0.4917E-01
    -11.097  0.9180E-02  0.8329E-02  0.5031E-01  0.5012E-01
    -10.982  0.1355E-01  0.1333E-01  0.5186E-01  0.5165E-01
    -10.867  0.1186E-01  0.1245E-01  0.5322E-01  0.5308E-01
    -10.752  0.9962E-02  0.1029E-01  0.5437E-01  0.5427E-01
    -10.637  0.1261E-01  0.1253E-01  0.5582E-01  0.5570E-01
    -10.523  0.1306E-01  0.1327E-01  0.5732E-01  0.5723E-01
    -10.408  0.7719E-02  0.8159E-02  0.5820E-01  0.5816E-01
    -10.293  0.2462E-02  0.2712E-02  0.5848E-01  0.5848E-01
    -10.178  0.4736E-03  0.4884E-03  0.5854E-01  0.5853E-01
    -10.063  0.5954E-03  0.1534E-03  0.5861E-01  0.5855E-01
     -9.948  0.3023E-02  0.9331E-03  0.5895E-01  0.5866E-01
     -9.834  0.8931E-02  0.4353E-02  0.5998E-01  0.5916E-01
     -9.719  0.1531E-01  0.1144E-01  0.6174E-01  0.6047E-01
     -9.604  0.1790E-01  0.1838E-01  0.6379E-01  0.6258E-01
     -9.489  0.1761E-01  0.2061E-01  0.6581E-01  0.6495E-01
     -9.374  0.1479E-01  0.1796E-01  0.6751E-01  0.6701E-01
     -9.260  0.1213E-01  0.1426E-01  0.6890E-01  0.6865E-01
     -9.145  0.1346E-01  0.1418E-01  0.7045E-01  0.7027E-01
     -9.030  0.1317E-01  0.1366E-01  0.7196E-01  0.7184E-01
     -8.915  0.7674E-02  0.8278E-02  0.7284E-01  0.7279E-01
     -8.800  0.2629E-02  0.2868E-02  0.7315E-01  0.7312E-01
     -8.685  0.1915E-02  0.1433E-02  0.7337E-01  0.7329E-01
     -8.571  0.5793E-02  0.4304E-02  0.7403E-01  0.7378E-01
     -8.456  0.1176E-01  0.1031E-01  0.7538E-01  0.7496E-01
     -8.341  0.1288E-01  0.1336E-01  0.7686E-01  0.7650E-01
     -8.226  0.7552E-02  0.9284E-02  0.7773E-01  0.7756E-01
     -8.111  0.2370E-02  0.3453E-02  0.7800E-01  0.7796E-01
     -7.997  0.3972E-03  0.6863E-03  0.7804E-01  0.7804E-01
     -7.882  0.3542E-04  0.7265E-04  0.7805E-01  0.7805E-01
     -7.767  0.1675E-05  0.4082E-05  0.7805E-01  0.7805E-01
     -7.652  0.4194E-07  0.1213E-06  0.7805E-01  0.7805E-01
     -7.537  0.8650E-08  0.2635E-08  0.7805E-01  0.7805E-01
     -7.422  0.4291E-06  0.5802E-07  0.7805E-01  0.7805E-01
     -7.308  0.1214E-04  0.2424E-05  0.7805E-01  0.7805E-01
     -7.193  0.1849E-03  0.5378E-04  0.7807E-01  0.7806E-01
     -7.078  0.1534E-02  0.6358E-03  0.7825E-01  0.7813E-01
     -6.963  0.7009E-02  0.4019E-02  0.7905E-01  0.7859E-01
     -6.848  0.1785E-01  0.1364E-01  0.8110E-01  0.8016E-01
     -6.733  0.2556E-01  0.2489E-01  0.8404E-01  0.8301E-01
     -6.619  0.2066E-01  0.2447E-01  0.8641E-01  0.8582E-01
     -6.504  0.9401E-02  0.1296E-01  0.8749E-01  0.8731E-01
     -6.389  0.2391E-02  0.3692E-02  0.8776E-01  0.8773E-01
     -6.274  0.3359E-03  0.5643E-03  0.8780E-01  0.8780E-01
     -6.159  0.2578E-04  0.4613E-04  0.8780E-01  0.8780E-01
     -6.045  0.1068E-05  0.2008E-05  0.8780E-01  0.8780E-01
     -5.930  0.2368E-07  0.4641E-07  0.8780E-01  0.8780E-01
     -5.815  0.2788E-09  0.5673E-09  0.8780E-01  0.8780E-01
     -5.700  0.1732E-11  0.3657E-11  0.8780E-01  0.8780E-01
     -5.585  0.5660E-14  0.1239E-13  0.8780E-01  0.8780E-01
     -5.470  0.9433E-17  0.2358E-16  0.8780E-01  0.8780E-01
     -5.356  0.0000E+00  0.0000E+00  0.8780E-01  0.8780E-01
     -5.241  0.0000E+00  0.0000E+00  0.8780E-01  0.8780E-01
     -5.126  0.0000E+00  0.0000E+00  0.8780E-01  0.8780E-01
     -5.011  0.0000E+00  0.0000E+00  0.8780E-01  0.8780E-01
     -4.896  0.0000E+00  0.0000E+00  0.8780E-01  0.8780E-01
     -4.782  0.0000E+00  0.0000E+00  0.8780E-01  0.8780E-01
     -4.667  0.0000E+00  0.0000E+00  0.8780E-01  0.8780E-01
     -4.552  0.0000E+00  0.0000E+00  0.8780E-01  0.8780E-01
     -4.437  0.0000E+00  0.0000E+00  0.8780E-01  0.8780E-01
     -4.322  0.0000E+00  0.0000E+00  0.8780E-01  0.8780E-01
     -4.207  0.0000E+00  0.0000E+00  0.8780E-01  0.8780E-01
     -4.093  0.0000E+00  0.0000E+00  0.8780E-01  0.8780E-01
     -3.978  0.0000E+00  0.0000E+00  0.8780E-01  0.8780E-01
     -3.863  0.0000E+00  0.0000E+00  0.8780E-01  0.8780E-01
     -3.748  0.0000E+00  0.0000E+00  0.8780E-01  0.8780E-01
     -3.633  0.0000E+00  0.0000E+00  0.8780E-01  0.8780E-01
     -3.518  0.0000E+00  0.0000E+00  0.8780E-01  0.8780E-01
     -3.404  0.2358E-17  0.0000E+00  0.8780E-01  0.8780E-01
     -3.289  0.1380E-14  0.0000E+00  0.8780E-01  0.8780E-01
     -3.174  0.4871E-12  0.0000E+00  0.8780E-01  0.8780E-01
     -3.059  0.9003E-10  0.0000E+00  0.8780E-01  0.8780E-01
     -2.944  0.8732E-08  0.0000E+00  0.8780E-01  0.8780E-01
     -2.830  0.4455E-06  0.2358E-17  0.8780E-01  0.8780E-01
     -2.715  0.1200E-04  0.1908E-14  0.8781E-01  0.8780E-01
     -2.600  0.1710E-03  0.6941E-12  0.8783E-01  0.8780E-01
     -2.485  0.1296E-02  0.1325E-09  0.8797E-01  0.8780E-01
     -2.370  0.5238E-02  0.1329E-07  0.8858E-01  0.8780E-01
     -2.255  0.1133E-01  0.7024E-06  0.8988E-01  0.8780E-01
     -2.141  0.1324E-01  0.1962E-04  0.9140E-01  0.8781E-01
     -2.026  0.9320E-02  0.2908E-03  0.9247E-01  0.8784E-01
     -1.911  0.8505E-02  0.2295E-02  0.9344E-01  0.8810E-01
     -1.796  0.1633E-01  0.9670E-02  0.9532E-01  0.8921E-01
     -1.681  0.2473E-01  0.2183E-01  0.9816E-01  0.9172E-01
     -1.567  0.2208E-01  0.2647E-01  0.1007E+00  0.9476E-01
     -1.452  0.1133E-01  0.1756E-01  0.1020E+00  0.9678E-01
     -1.337  0.3295E-02  0.8228E-02  0.1024E+00  0.9772E-01
     -1.222  0.5366E-03  0.8413E-02  0.1024E+00  0.9869E-01
     -1.107  0.8042E-04  0.1287E-01  0.1024E+00  0.1002E+00
     -0.992  0.3902E-03  0.1196E-01  0.1025E+00  0.1015E+00
     -0.878  0.2518E-02  0.6026E-02  0.1028E+00  0.1022E+00
     -0.763  0.9173E-02  0.1943E-02  0.1038E+00  0.1025E+00
     -0.648  0.1934E-01  0.2325E-02  0.1061E+00  0.1027E+00
     -0.533  0.2440E-01  0.7045E-02  0.1089E+00  0.1035E+00
     -0.418  0.1930E-01  0.1262E-01  0.1111E+00  0.1050E+00
     -0.303  0.1277E-01  0.1223E-01  0.1125E+00  0.1064E+00
     -0.189  0.1531E-01  0.7137E-02  0.1143E+00  0.1072E+00
     -0.074  0.2491E-01  0.5983E-02  0.1172E+00  0.1079E+00
      0.041  0.3342E-01  0.1219E-01  0.1210E+00  0.1093E+00
      0.156  0.3677E-01  0.2269E-01  0.1252E+00  0.1119E+00
      0.271  0.3427E-01  0.3526E-01  0.1291E+00  0.1159E+00
      0.385  0.3234E-01  0.4500E-01  0.1329E+00  0.1211E+00
      0.500  0.3966E-01  0.4341E-01  0.1374E+00  0.1261E+00
      0.615  0.4903E-01  0.3641E-01  0.1430E+00  0.1303E+00
      0.730  0.5150E-01  0.3743E-01  0.1490E+00  0.1346E+00
      0.845  0.4817E-01  0.4576E-01  0.1545E+00  0.1398E+00
      0.960  0.3508E-01  0.5027E-01  0.1585E+00  0.1456E+00
      1.074  0.1632E-01  0.5023E-01  0.1604E+00  0.1514E+00
      1.189  0.4381E-02  0.4434E-01  0.1609E+00  0.1565E+00
      1.304  0.6522E-03  0.2726E-01  0.1610E+00  0.1596E+00
      1.419  0.5284E-04  0.9887E-02  0.1610E+00  0.1607E+00
      1.534  0.2304E-05  0.1992E-02  0.1610E+00  0.1609E+00
      1.648  0.5361E-07  0.2182E-03  0.1610E+00  0.1610E+00
      1.763  0.6621E-09  0.1286E-04  0.1610E+00  0.1610E+00
      1.878  0.4319E-11  0.4053E-06  0.1610E+00  0.1610E+00
      1.993  0.1483E-13  0.6784E-08  0.1610E+00  0.1610E+00
      2.108  0.2358E-16  0.6003E-10  0.1610E+00  0.1610E+00
      2.223  0.0000E+00  0.2797E-12  0.1610E+00  0.1610E+00
      2.337  0.0000E+00  0.6886E-15  0.1610E+00  0.1610E+00
      2.452  0.0000E+00  0.0000E+00  0.1610E+00  0.1610E+00
      2.567  0.0000E+00  0.0000E+00  0.1610E+00  0.1610E+00
      2.682  0.0000E+00  0.0000E+00  0.1610E+00  0.1610E+00
      2.797  0.0000E+00  0.0000E+00  0.1610E+00  0.1610E+00
      2.912  0.0000E+00  0.0000E+00  0.1610E+00  0.1610E+00
      3.026  0.0000E+00  0.0000E+00  0.1610E+00  0.1610E+00
      3.141  0.0000E+00  0.0000E+00  0.1610E+00  0.1610E+00
