   14   14  205    2
  0.2410714E+03  0.1500000E-08  0.1500000E-08  0.1500000E-08  0.2000000E-16
   1.0000000000000000E-004
  CAR 
 vibration                               
     37      1     33

  0.1262379E-14  0.1262379E-14  0.1262379E-14  0.1000000E+01
    1      -29.305297    -29.157432   1.000000   1.000000
    2      -21.647867    -21.622644   1.000000   1.000000
    3      -18.977386    -18.916394   1.000000   1.000000
    4      -18.904102    -18.894772   1.000000   1.000000
    5      -17.409797    -17.097999   1.000000   1.000000
    6      -16.048456    -15.944584   1.000000   1.000000
    7      -15.511593    -15.497852   1.000000   1.000000
    8      -14.024218    -13.974074   1.000000   1.000000
    9      -12.466138    -12.443148   1.000000   1.000000
   10      -12.070612    -12.032448   1.000000   1.000000
   11      -11.027522    -11.012233   1.000000   1.000000
   12      -10.617896    -10.610080   1.000000   1.000000
   13       -9.754359     -9.669724   1.000000   1.000000
   14       -9.495246     -9.457301   1.000000   1.000000
   15       -9.126544     -9.116106   1.000000   1.000000
   16       -8.439159     -8.408006   1.000000   1.000000
   17       -6.818392     -6.750274   1.000000   1.000000
   18       -6.734097     -6.722985   1.000000   1.000000
   19       -2.228524     -1.653906   0.943606   0.006618
   20       -1.753619     -1.637988   0.038172   0.004800
   21       -1.655311     -1.119223   0.006804   0.000000
   22       -0.659959     -0.425465   0.000000   0.000000
   23       -0.532152      0.093378   0.000000   0.000000
   24       -0.133458      0.322464   0.000000   0.000000
   25        0.011801      0.327531   0.000000   0.000000
   26        0.137153      0.413460   0.000000   0.000000
   27        0.238713      0.574571   0.000000   0.000000
   28        0.507041      0.777034   0.000000   0.000000
   29        0.523343      0.853817   0.000000   0.000000
   30        0.599930      0.866262   0.000000   0.000000
   31        0.754139      1.069839   0.000000   0.000000
   32        0.834083      1.130281   0.000000   0.000000
   33        0.857877      1.141172   0.000000   0.000000
