       N       E                     dE             d eps       ncg     rms          rms(c)
DAV:   1    -0.822755925467E+02   -0.82276E+02   -0.75810E-06   119   0.669E-03    0.643E-04
DAV:   2    -0.822755875750E+02    0.49717E-05   -0.45366E-07   128   0.246E-03
   1 F= -.82631445E+02 E0= -.82613546E+02  d E =-.357993E-01  mag=     0.9765
       N       E                     dE             d eps       ncg     rms          rms(c)
DAV:   1    -0.822742695727E+02    0.13230E-02   -0.14728E-01   152   0.163E+00    0.137E-01
DAV:   2    -0.822739466861E+02    0.32289E-03   -0.13723E-03   151   0.169E-01    0.809E-02
DAV:   3    -0.822740648859E+02   -0.11820E-03   -0.46982E-04   142   0.872E-02    0.236E-02
DAV:   4    -0.822740603233E+02    0.45626E-05   -0.12668E-04   151   0.491E-02    0.110E-02
DAV:   5    -0.822740598521E+02    0.47116E-06   -0.13693E-05   120   0.178E-02
   2 F= -.82629961E+02 E0= -.82612054E+02  d E =-.358143E-01  mag=     0.9766
       N       E                     dE             d eps       ncg     rms          rms(c)
DAV:   1    -0.822729233019E+02    0.11370E-02   -0.58332E-01   140   0.325E+00    0.273E-01
DAV:   2    -0.822721168029E+02    0.80650E-03   -0.56130E-03   158   0.338E-01    0.160E-01
DAV:   3    -0.822713571565E+02    0.75965E-03   -0.19256E-03   141   0.174E-01    0.468E-02
DAV:   4    -0.822716788655E+02   -0.32171E-03   -0.58455E-04   140   0.102E-01    0.219E-02
DAV:   5    -0.822720329073E+02   -0.35404E-03   -0.67212E-05   156   0.360E-02    0.563E-03
DAV:   6    -0.822721055293E+02   -0.72622E-04   -0.66065E-06   134   0.131E-02    0.329E-03
DAV:   7    -0.822721268237E+02   -0.21294E-04   -0.21979E-06   125   0.779E-03    0.175E-03
DAV:   8    -0.822721313111E+02   -0.44875E-05   -0.53195E-07   127   0.391E-03
   3 F= -.82627946E+02 E0= -.82610045E+02  d E =-.358022E-01  mag=     0.9763
       N       E                     dE             d eps       ncg     rms          rms(c)
DAV:   1    -0.822721994984E+02   -0.72675E-04   -0.31297E-01   174   0.243E+00    0.273E-01
DAV:   2    -0.822706512675E+02    0.15482E-02   -0.73603E-03   149   0.403E-01    0.154E-01
DAV:   3    -0.822708297102E+02   -0.17844E-03   -0.22347E-03   141   0.192E-01    0.580E-02
DAV:   4    -0.822707694706E+02    0.60240E-04   -0.74583E-04   151   0.119E-01    0.293E-02
DAV:   5    -0.822707925594E+02   -0.23089E-04   -0.88828E-05   151   0.469E-02    0.732E-03
DAV:   6    -0.822708466192E+02   -0.54060E-04   -0.16756E-05   128   0.191E-02    0.326E-03
DAV:   7    -0.822708649776E+02   -0.18358E-04   -0.38493E-06   110   0.100E-02    0.176E-03
DAV:   8    -0.822708735424E+02   -0.85648E-05   -0.84420E-07   127   0.458E-03
   4 F= -.82626917E+02 E0= -.82609205E+02  d E =-.354237E-01  mag=     0.9765
       N       E                     dE             d eps       ncg     rms          rms(c)
DAV:   1    -0.822718690640E+02   -0.10041E-02   -0.60136E-01   166   0.341E+00    0.350E-01
DAV:   2    -0.822701065095E+02    0.17626E-02   -0.12883E-02   157   0.517E-01    0.199E-01
DAV:   3    -0.822687166077E+02    0.13899E-02   -0.35955E-03   158   0.242E-01    0.726E-02
DAV:   4    -0.822691071376E+02   -0.39053E-03   -0.12355E-03   141   0.148E-01    0.348E-02
DAV:   5    -0.822696918261E+02   -0.58469E-03   -0.15088E-04   151   0.553E-02    0.815E-03
DAV:   6    -0.822698469239E+02   -0.15510E-03   -0.22189E-05   167   0.211E-02    0.438E-03
DAV:   7    -0.822699220266E+02   -0.75103E-04   -0.25752E-06   110   0.815E-03    0.234E-03
DAV:   8    -0.822699363154E+02   -0.14289E-04   -0.96094E-07   128   0.458E-03    0.101E-03
DAV:   9    -0.822699384766E+02   -0.21612E-05   -0.35257E-07   127   0.287E-03
   5 F= -.82625615E+02 E0= -.82607558E+02  d E =-.361147E-01  mag=     0.9764
       N       E                     dE             d eps       ncg     rms          rms(c)
DAV:   1    -0.822759513943E+02   -0.60151E-02   -0.28422E-01   160   0.232E+00    0.202E-01
DAV:   2    -0.822753570096E+02    0.59438E-03   -0.38391E-03   158   0.282E-01    0.119E-01
DAV:   3    -0.822755154260E+02   -0.15842E-03   -0.11027E-03   149   0.141E-01    0.394E-02
DAV:   4    -0.822755174205E+02   -0.19945E-05   -0.30311E-04   151   0.769E-02    0.176E-02
DAV:   5    -0.822755258628E+02   -0.84422E-05   -0.33141E-05   128   0.274E-02
   6 F= -.82631381E+02 E0= -.82613578E+02  d E =-.356068E-01  mag=     0.9766
       N       E                     dE             d eps       ncg     rms          rms(c)
DAV:   1    -0.822746049604E+02    0.91246E-03   -0.53912E-01   158   0.322E+00    0.226E-01
DAV:   2    -0.822745897113E+02    0.15249E-04   -0.32927E-03   166   0.238E-01    0.137E-01
DAV:   3    -0.822742086022E+02    0.38111E-03   -0.65066E-04   133   0.109E-01    0.144E-02
DAV:   4    -0.822742974406E+02   -0.88838E-04   -0.64709E-05   158   0.353E-02    0.921E-03
DAV:   5    -0.822745225153E+02   -0.22507E-03   -0.51134E-05   120   0.234E-02    0.407E-03
DAV:   6    -0.822746021722E+02   -0.79657E-04   -0.45528E-06   134   0.943E-03    0.157E-03
DAV:   7    -0.822746334399E+02   -0.31268E-04   -0.11086E-06   128   0.446E-03    0.962E-04
DAV:   8    -0.822746485010E+02   -0.15061E-04   -0.80122E-07   125   0.328E-03    0.672E-04
DAV:   9    -0.822746707095E+02   -0.22209E-04   -0.80943E-07   120   0.283E-03    0.411E-04
DAV:  10    -0.822746962826E+02   -0.25573E-04   -0.78599E-07   119   0.237E-03    0.278E-04
DAV:  11    -0.822747050999E+02   -0.88173E-05   -0.16983E-07   136   0.127E-03
   7 F= -.82630564E+02 E0= -.82612543E+02  d E =-.360416E-01  mag=     0.9761
       N       E                     dE             d eps       ncg     rms          rms(c)
DAV:   1    -0.822724744467E+02    0.22218E-02   -0.27950E-01   133   0.227E+00    0.173E-01
DAV:   2    -0.822723601502E+02    0.11430E-03   -0.26644E-03   151   0.220E-01    0.105E-01
DAV:   3    -0.822722938073E+02    0.66343E-04   -0.74010E-04   133   0.114E-01    0.272E-02
DAV:   4    -0.822722800926E+02    0.13715E-04   -0.15960E-04   158   0.552E-02    0.115E-02
DAV:   5    -0.822723541420E+02   -0.74049E-04   -0.23375E-05   136   0.200E-02    0.346E-03
DAV:   6    -0.822723753025E+02   -0.21161E-04   -0.18680E-06   144   0.696E-03    0.204E-03
DAV:   7    -0.822723896745E+02   -0.14372E-04   -0.11138E-06   127   0.476E-03    0.104E-03
DAV:   8    -0.822723949756E+02   -0.53011E-05   -0.34440E-07   144   0.278E-03
   8 F= -.82628163E+02 E0= -.82610326E+02  d E =-.356744E-01  mag=     0.9764
       N       E                     dE             d eps       ncg     rms          rms(c)
DAV:   1    -0.822746400043E+02   -0.22503E-02   -0.58658E-01   150   0.296E+00    0.277E-01
DAV:   2    -0.822736475210E+02    0.99248E-03   -0.52748E-03   150   0.310E-01    0.157E-01
DAV:   3    -0.822738400385E+02   -0.19252E-03   -0.14867E-03   134   0.158E-01    0.456E-02
DAV:   4    -0.822738224918E+02    0.17547E-04   -0.34563E-04   159   0.835E-02    0.173E-02
DAV:   5    -0.822738144602E+02    0.80317E-05   -0.42082E-05   152   0.304E-02
   9 F= -.82629762E+02 E0= -.82611795E+02  d E =-.359358E-01  mag=     0.9764
       N       E                     dE             d eps       ncg     rms          rms(c)
DAV:   1    -0.822707435709E+02    0.30789E-02   -0.29098E-01   142   0.208E+00    0.169E-01
DAV:   2    -0.822706470618E+02    0.96509E-04   -0.20571E-03   159   0.180E-01    0.100E-01
DAV:   3    -0.822707539556E+02   -0.10689E-03   -0.44929E-04   142   0.887E-02    0.200E-02
DAV:   4    -0.822707257589E+02    0.28197E-04   -0.79637E-05   142   0.403E-02    0.766E-03
DAV:   5    -0.822707080226E+02    0.17736E-04   -0.12045E-05   118   0.147E-02    0.281E-03
DAV:   6    -0.822707212119E+02   -0.13189E-04   -0.24866E-06   118   0.767E-03    0.147E-03
DAV:   7    -0.822707305050E+02   -0.92932E-05   -0.77365E-07   127   0.395E-03
  10 F= -.82626738E+02 E0= -.82608882E+02  d E =-.357121E-01  mag=     0.9763
       N       E                     dE             d eps       ncg     rms          rms(c)
DAV:   1    -0.822722605982E+02   -0.15394E-02   -0.61480E-01   174   0.309E+00    0.365E-01
DAV:   2    -0.822701979676E+02    0.20626E-02   -0.12842E-02   151   0.479E-01    0.202E-01
DAV:   3    -0.822693496650E+02    0.84830E-03   -0.33952E-03   141   0.228E-01    0.707E-02
DAV:   4    -0.822694445511E+02   -0.94886E-04   -0.11786E-03   140   0.144E-01    0.339E-02
DAV:   5    -0.822698397658E+02   -0.39521E-03   -0.15995E-04   148   0.571E-02    0.723E-03
DAV:   6    -0.822699420710E+02   -0.10231E-03   -0.23797E-05   151   0.205E-02    0.423E-03
DAV:   7    -0.822699703435E+02   -0.28272E-04   -0.21795E-06   126   0.749E-03    0.205E-03
DAV:   8    -0.822699765334E+02   -0.61899E-05   -0.72890E-07   127   0.418E-03
  11 F= -.82625689E+02 E0= -.82607764E+02  d E =-.358503E-01  mag=     0.9766
       N       E                     dE             d eps       ncg     rms          rms(c)
DAV:   1    -0.822750579374E+02   -0.50876E-02   -0.28732E-01   151   0.211E+00    0.204E-01
DAV:   2    -0.822745573884E+02    0.50055E-03   -0.36638E-03   151   0.255E-01    0.120E-01
DAV:   3    -0.822746308256E+02   -0.73437E-04   -0.11346E-03   141   0.139E-01    0.385E-02
DAV:   4    -0.822745902144E+02    0.40611E-04   -0.35980E-04   151   0.815E-02    0.178E-02
DAV:   5    -0.822745979937E+02   -0.77793E-05   -0.36653E-05   128   0.291E-02
  12 F= -.82630454E+02 E0= -.82612538E+02  d E =-.358327E-01  mag=     0.9764
       N       E                     dE             d eps       ncg     rms          rms(c)
DAV:   1    -0.822755065770E+02   -0.91636E-03   -0.54273E-01   141   0.295E+00    0.227E-01
DAV:   2    -0.822755430111E+02   -0.36434E-04   -0.34736E-03   143   0.227E-01    0.138E-01
DAV:   3    -0.822755564338E+02   -0.13423E-04   -0.48060E-04   142   0.943E-02    0.129E-02
DAV:   4    -0.822755460110E+02    0.10423E-04   -0.35168E-05   167   0.264E-02    0.835E-03
DAV:   5    -0.822755543179E+02   -0.83069E-05   -0.79082E-06   112   0.130E-02
  13 F= -.82631413E+02 E0= -.82613533E+02  d E =-.357601E-01  mag=     0.9764
       N       E                     dE             d eps       ncg     rms          rms(c)
DAV:   1    -0.822701321868E+02    0.54138E-02   -0.29228E-01   168   0.227E+00    0.224E-01
DAV:   2    -0.822695187518E+02    0.61343E-03   -0.47385E-03   143   0.286E-01    0.129E-01
DAV:   3    -0.822683194604E+02    0.11993E-02   -0.16594E-03   142   0.154E-01    0.477E-02
DAV:   4    -0.822689381209E+02   -0.61866E-03   -0.58567E-04   141   0.948E-02    0.223E-02
DAV:   5    -0.822693679843E+02   -0.42986E-03   -0.67255E-05   148   0.321E-02    0.529E-03
DAV:   6    -0.822694727876E+02   -0.10480E-03   -0.55845E-06   119   0.112E-02    0.279E-03
DAV:   7    -0.822695010798E+02   -0.28292E-04   -0.21668E-06   118   0.660E-03    0.148E-03
DAV:   8    -0.822695066597E+02   -0.55799E-05   -0.48930E-07   119   0.326E-03
  14 F= -.82625197E+02 E0= -.82607311E+02  d E =-.357728E-01  mag=     0.9763
       N       E                     dE             d eps       ncg     rms          rms(c)
DAV:   1    -0.822712640385E+02   -0.17630E-02   -0.64065E-01   156   0.244E+00    0.402E-01
DAV:   2    -0.822674739181E+02    0.37901E-02   -0.16230E-02   142   0.484E-01    0.221E-01
DAV:   3    -0.822680664771E+02   -0.59256E-03   -0.38392E-03   143   0.234E-01    0.909E-02
DAV:   4    -0.822678775199E+02    0.18896E-03   -0.12458E-03   142   0.152E-01    0.404E-02
DAV:   5    -0.822677872762E+02    0.90244E-04   -0.18869E-04   143   0.585E-02    0.110E-02
DAV:   6    -0.822681255721E+02   -0.33830E-03   -0.58602E-05   141   0.313E-02    0.480E-03
DAV:   7    -0.822681900198E+02   -0.64448E-04   -0.17537E-05   127   0.160E-02    0.267E-03
DAV:   8    -0.822682251728E+02   -0.35153E-04   -0.20962E-06   133   0.601E-03    0.144E-03
DAV:   9    -0.822682673197E+02   -0.42147E-04   -0.14658E-06   117   0.486E-03    0.731E-04
DAV:  10    -0.822682792975E+02   -0.11978E-04   -0.44590E-07   152   0.253E-03    0.546E-04
DAV:  11    -0.822683066973E+02   -0.27400E-04   -0.10663E-06   108   0.316E-03    0.433E-04
DAV:  12    -0.822683217652E+02   -0.15068E-04   -0.40457E-07   143   0.175E-03    0.417E-04
DAV:  13    -0.822683259742E+02   -0.42090E-05   -0.10362E-07   128   0.121E-03
  15 F= -.82624357E+02 E0= -.82606447E+02  d E =-.358205E-01  mag=     0.9766
       N       E                     dE             d eps       ncg     rms          rms(c)
DAV:   1    -0.822753881010E+02   -0.70663E-02   -0.30563E-01   148   0.168E+00    0.239E-01
DAV:   2    -0.822745308756E+02    0.85723E-03   -0.42466E-03   142   0.253E-01    0.131E-01
DAV:   3    -0.822733690106E+02    0.11619E-02   -0.13747E-03   141   0.137E-01    0.475E-02
DAV:   4    -0.822739062596E+02   -0.53725E-03   -0.53258E-04   141   0.906E-02    0.206E-02
DAV:   5    -0.822743655069E+02   -0.45925E-03   -0.62678E-05   148   0.323E-02    0.529E-03
DAV:   6    -0.822744692773E+02   -0.10377E-03   -0.73283E-06   119   0.124E-02    0.289E-03
DAV:   7    -0.822744952016E+02   -0.25924E-04   -0.19876E-06   126   0.664E-03    0.148E-03
DAV:   8    -0.822745016491E+02   -0.64475E-05   -0.48898E-07   119   0.323E-03
  16 F= -.82630358E+02 E0= -.82612457E+02  d E =-.358021E-01  mag=     0.9764
       N       E                     dE             d eps       ncg     rms          rms(c)
DAV:   1    -0.822744031412E+02    0.92060E-04   -0.56870E-01   132   0.226E+00    0.216E-01
DAV:   2    -0.822744748533E+02   -0.71712E-04   -0.30012E-03   135   0.173E-01    0.130E-01
DAV:   3    -0.822745220805E+02   -0.47227E-04   -0.59501E-04   150   0.103E-01    0.154E-02
DAV:   4    -0.822745172499E+02    0.48307E-05   -0.59008E-05   175   0.364E-02
  17 F= -.82630374E+02 E0= -.82612487E+02  d E =-.357737E-01  mag=     0.9764
       N       E                     dE             d eps       ncg     rms          rms(c)
DAV:   1    -0.822749609063E+02   -0.43883E-03   -0.27808E-01   150   0.162E+00    0.156E-01
DAV:   2    -0.822749890392E+02   -0.28133E-04   -0.17842E-03   158   0.129E-01    0.949E-02
DAV:   3    -0.822750217935E+02   -0.32754E-04   -0.27123E-04   143   0.657E-02    0.916E-03
DAV:   4    -0.822750277780E+02   -0.59845E-05   -0.20605E-05   176   0.203E-02
  18 F= -.82630885E+02 E0= -.82613029E+02  d E =-.357117E-01  mag=     0.9765
       N       E                     dE             d eps       ncg     rms          rms(c)
DAV:   1    -0.822750919451E+02   -0.70152E-04   -0.54389E-01   142   0.223E+00    0.228E-01
DAV:   2    -0.822751747495E+02   -0.82804E-04   -0.38365E-03   143   0.176E-01    0.138E-01
DAV:   3    -0.822751093902E+02    0.65359E-04   -0.55028E-04   143   0.886E-02    0.136E-02
DAV:   4    -0.822751380213E+02   -0.28631E-04   -0.44930E-05   159   0.279E-02    0.901E-03
DAV:   5    -0.822751595274E+02   -0.21506E-04   -0.98343E-06   112   0.143E-02    0.314E-03
DAV:   6    -0.822751722434E+02   -0.12716E-04   -0.34446E-06   120   0.933E-03    0.137E-03
DAV:   7    -0.822751799189E+02   -0.76755E-05   -0.63592E-07   120   0.407E-03
  19 F= -.82631037E+02 E0= -.82613099E+02  d E =-.358765E-01  mag=     0.9764
       N       E                     dE             d eps       ncg     rms          rms(c)
DAV:   1    -0.822724775662E+02    0.26947E-02   -0.28097E-01   133   0.223E+00    0.175E-01
DAV:   2    -0.822723726867E+02    0.10488E-03   -0.26518E-03   151   0.217E-01    0.105E-01
DAV:   3    -0.822722077842E+02    0.16490E-03   -0.74005E-04   142   0.114E-01    0.267E-02
DAV:   4    -0.822722586571E+02   -0.50873E-04   -0.16463E-04   166   0.560E-02    0.113E-02
DAV:   5    -0.822723725354E+02   -0.11388E-03   -0.23010E-05   134   0.197E-02    0.340E-03
DAV:   6    -0.822723976428E+02   -0.25107E-04   -0.17800E-06   128   0.731E-03    0.202E-03
DAV:   7    -0.822724039894E+02   -0.63465E-05   -0.91816E-07   117   0.483E-03
  20 F= -.82628172E+02 E0= -.82610335E+02  d E =-.356742E-01  mag=     0.9764
       N       E                     dE             d eps       ncg     rms          rms(c)
DAV:   1    -0.822746708572E+02   -0.22732E-02   -0.58663E-01   152   0.295E+00    0.278E-01
DAV:   2    -0.822735954790E+02    0.10754E-02   -0.52799E-03   150   0.307E-01    0.157E-01
DAV:   3    -0.822738242830E+02   -0.22880E-03   -0.14705E-03   141   0.155E-01    0.466E-02
DAV:   4    -0.822738131026E+02    0.11180E-04   -0.33758E-04   151   0.829E-02    0.175E-02
DAV:   5    -0.822738045871E+02    0.85155E-05   -0.43452E-05   159   0.307E-02
  21 F= -.82629752E+02 E0= -.82611774E+02  d E =-.359565E-01  mag=     0.9764
       N       E                     dE             d eps       ncg     rms          rms(c)
DAV:   1    -0.822713529043E+02    0.24602E-02   -0.31153E-01   174   0.220E+00    0.275E-01
DAV:   2    -0.822701130497E+02    0.12399E-02   -0.78064E-03   159   0.370E-01    0.152E-01
DAV:   3    -0.822693818088E+02    0.73124E-03   -0.19143E-03   148   0.172E-01    0.539E-02
DAV:   4    -0.822695119959E+02   -0.13019E-03   -0.64993E-04   148   0.106E-01    0.249E-02
DAV:   5    -0.822698855500E+02   -0.37355E-03   -0.87841E-05   156   0.413E-02    0.580E-03
DAV:   6    -0.822699693476E+02   -0.83798E-04   -0.11103E-05   118   0.151E-02    0.295E-03
DAV:   7    -0.822700030556E+02   -0.33708E-04   -0.27931E-06   125   0.847E-03    0.158E-03
DAV:   8    -0.822700071519E+02   -0.40963E-05   -0.56246E-07   119   0.380E-03
  22 F= -.82625720E+02 E0= -.82607797E+02  d E =-.358468E-01  mag=     0.9766
       N       E                     dE             d eps       ncg     rms          rms(c)
DAV:   1    -0.822728554187E+02   -0.28524E-02   -0.62005E-01   140   0.306E+00    0.360E-01
DAV:   2    -0.822705204146E+02    0.23350E-02   -0.12330E-02   143   0.477E-01    0.204E-01
DAV:   3    -0.822706927635E+02   -0.17235E-03   -0.37290E-03   133   0.242E-01    0.731E-02
DAV:   4    -0.822704926438E+02    0.20012E-03   -0.13279E-03   151   0.155E-01    0.366E-02
DAV:   5    -0.822705419164E+02   -0.49273E-04   -0.15847E-04   143   0.609E-02    0.866E-03
DAV:   6    -0.822706440634E+02   -0.10215E-03   -0.32599E-05   143   0.241E-02    0.458E-03
DAV:   7    -0.822706463987E+02   -0.23353E-05   -0.46333E-06   118   0.103E-02
  23 F= -.82626654E+02 E0= -.82608815E+02  d E =-.356765E-01  mag=     0.9763
       N       E                     dE             d eps       ncg     rms          rms(c)
DAV:   1    -0.822752098151E+02   -0.45658E-02   -0.29241E-01   166   0.216E+00    0.217E-01
DAV:   2    -0.822747389403E+02    0.47087E-03   -0.40126E-03   159   0.265E-01    0.126E-01
DAV:   3    -0.822742461435E+02    0.49280E-03   -0.13337E-03   133   0.147E-01    0.406E-02
DAV:   4    -0.822743930511E+02   -0.14691E-03   -0.48079E-04   141   0.918E-02    0.194E-02
DAV:   5    -0.822746164485E+02   -0.22340E-03   -0.54051E-05   149   0.330E-02    0.424E-03
DAV:   6    -0.822746691397E+02   -0.52691E-04   -0.51736E-06   136   0.108E-02    0.270E-03
DAV:   7    -0.822746871175E+02   -0.17978E-04   -0.14872E-06   127   0.616E-03    0.139E-03
DAV:   8    -0.822746900872E+02   -0.29696E-05   -0.37633E-07   127   0.303E-03
  24 F= -.82630546E+02 E0= -.82612663E+02  d E =-.357677E-01  mag=     0.9765
       N       E                     dE             d eps       ncg     rms          rms(c)
DAV:   1    -0.822754647958E+02   -0.77768E-03   -0.54299E-01   132   0.294E+00    0.227E-01
DAV:   2    -0.822754867390E+02   -0.21943E-04   -0.32976E-03   143   0.217E-01    0.138E-01
DAV:   3    -0.822754695759E+02    0.17163E-04   -0.48662E-04   149   0.947E-02    0.128E-02
DAV:   4    -0.822754657329E+02    0.38429E-05   -0.37356E-05   168   0.272E-02
  25 F= -.82631324E+02 E0= -.82613406E+02  d E =-.358355E-01  mag=     0.9764
       N       E                     dE             d eps       ncg     rms          rms(c)
DAV:   1    -0.822740569935E+02    0.14126E-02   -0.28187E-01   144   0.227E+00    0.173E-01
DAV:   2    -0.822738200274E+02    0.23697E-03   -0.26267E-03   151   0.222E-01    0.107E-01
DAV:   3    -0.822739815255E+02   -0.16150E-03   -0.76437E-04   143   0.118E-01    0.274E-02
DAV:   4    -0.822739878384E+02   -0.63130E-05   -0.16778E-04   151   0.582E-02    0.117E-02
DAV:   5    -0.822739933959E+02   -0.55575E-05   -0.22415E-05   128   0.208E-02
  26 F= -.82629895E+02 E0= -.82611986E+02  d E =-.358174E-01  mag=     0.9765
       N       E                     dE             d eps       ncg     rms          rms(c)
DAV:   1    -0.822729776979E+02    0.10101E-02   -0.58272E-01   133   0.325E+00    0.272E-01
DAV:   2    -0.822722022967E+02    0.77540E-03   -0.55652E-03   158   0.338E-01    0.160E-01
DAV:   3    -0.822715762403E+02    0.62606E-03   -0.19429E-03   149   0.177E-01    0.463E-02
DAV:   4    -0.822718020574E+02   -0.22582E-03   -0.57696E-04   141   0.102E-01    0.219E-02
DAV:   5    -0.822721158183E+02   -0.31376E-03   -0.64806E-05   156   0.356E-02    0.529E-03
DAV:   6    -0.822721828454E+02   -0.67027E-04   -0.63469E-06   126   0.126E-02    0.326E-03
DAV:   7    -0.822722026775E+02   -0.19832E-04   -0.20082E-06   126   0.762E-03    0.165E-03
DAV:   8    -0.822722069398E+02   -0.42622E-05   -0.53700E-07   127   0.399E-03
  27 F= -.82628021E+02 E0= -.82610125E+02  d E =-.357919E-01  mag=     0.9763
       N       E                     dE             d eps       ncg     rms          rms(c)
DAV:   1    -0.822698165557E+02    0.23861E-02   -0.28074E-01   134   0.222E+00    0.155E-01
DAV:   2    -0.822697648536E+02    0.51702E-04   -0.17899E-03   166   0.179E-01    0.925E-02
DAV:   3    -0.822696638239E+02    0.10103E-03   -0.39746E-04   134   0.854E-02    0.184E-02
DAV:   4    -0.822697222678E+02   -0.58444E-04   -0.72130E-05   151   0.390E-02    0.735E-03
DAV:   5    -0.822697941754E+02   -0.71908E-04   -0.10838E-05   126   0.141E-02    0.283E-03
DAV:   6    -0.822698129936E+02   -0.18818E-04   -0.15485E-06   119   0.672E-03    0.152E-03
DAV:   7    -0.822698187718E+02   -0.57782E-05   -0.60680E-07   134   0.367E-03
  28 F= -.82625495E+02 E0= -.82607444E+02  d E =-.361017E-01  mag=     0.9764
       N       E                     dE             d eps       ncg     rms          rms(c)
DAV:   1    -0.822727891652E+02   -0.29762E-02   -0.60570E-01   166   0.335E+00    0.347E-01
DAV:   2    -0.822708802340E+02    0.19089E-02   -0.13156E-02   141   0.519E-01    0.200E-01
DAV:   3    -0.822709763073E+02   -0.96073E-04   -0.34812E-03   150   0.246E-01    0.729E-02
DAV:   4    -0.822709056918E+02    0.70616E-04   -0.10187E-03   151   0.141E-01    0.338E-02
DAV:   5    -0.822709057696E+02   -0.77811E-07   -0.11218E-04   152   0.521E-02    0.825E-03
DAV:   6    -0.822709740032E+02   -0.68234E-04   -0.22062E-05   126   0.224E-02    0.419E-03
DAV:   7    -0.822709962443E+02   -0.22241E-04   -0.40599E-06   118   0.108E-02    0.234E-03
DAV:   8    -0.822710093232E+02   -0.13079E-04   -0.11439E-06   126   0.550E-03    0.127E-03
DAV:   9    -0.822710162907E+02   -0.69675E-05   -0.48996E-07   127   0.341E-03
  29 F= -.82627061E+02 E0= -.82609328E+02  d E =-.354652E-01  mag=     0.9764
       N       E                     dE             d eps       ncg     rms          rms(c)
DAV:   1    -0.822757178045E+02   -0.47085E-02   -0.28745E-01   158   0.235E+00    0.211E-01
DAV:   2    -0.822752624507E+02    0.45535E-03   -0.39675E-03   158   0.282E-01    0.123E-01
DAV:   3    -0.822748466343E+02    0.41582E-03   -0.11400E-03   142   0.143E-01    0.388E-02
DAV:   4    -0.822749766079E+02   -0.12997E-03   -0.35211E-04   150   0.811E-02    0.171E-02
DAV:   5    -0.822751592335E+02   -0.18263E-03   -0.38901E-05   151   0.286E-02    0.433E-03
DAV:   6    -0.822752093756E+02   -0.50142E-04   -0.41409E-06   128   0.101E-02    0.259E-03
DAV:   7    -0.822752382217E+02   -0.28846E-04   -0.16377E-06   128   0.612E-03    0.138E-03
DAV:   8    -0.822752469338E+02   -0.87120E-05   -0.46134E-07   135   0.312E-03
  30 F= -.82631102E+02 E0= -.82613258E+02  d E =-.356887E-01  mag=     0.9766
       N       E                     dE             d eps       ncg     rms          rms(c)
DAV:   1    -0.822749009790E+02    0.33724E-03   -0.53892E-01   148   0.322E+00    0.226E-01
DAV:   2    -0.822748996838E+02    0.12952E-05   -0.32779E-03   150   0.237E-01    0.137E-01
DAV:   3    -0.822746600417E+02    0.23964E-03   -0.60725E-04   133   0.107E-01    0.139E-02
DAV:   4    -0.822746972873E+02   -0.37246E-04   -0.55810E-05   152   0.328E-02    0.913E-03
DAV:   5    -0.822748501877E+02   -0.15290E-03   -0.37300E-05   134   0.209E-02    0.365E-03
DAV:   6    -0.822749095322E+02   -0.59344E-04   -0.39173E-06   136   0.890E-03    0.156E-03
DAV:   7    -0.822749395650E+02   -0.30033E-04   -0.10233E-06   127   0.419E-03    0.992E-04
DAV:   8    -0.822749572363E+02   -0.17671E-04   -0.86404E-07   134   0.318E-03    0.665E-04
DAV:   9    -0.822749759614E+02   -0.18725E-04   -0.70889E-07   120   0.265E-03    0.409E-04
DAV:  10    -0.822749973171E+02   -0.21356E-04   -0.67771E-07   120   0.223E-03    0.288E-04
DAV:  11    -0.822750059310E+02   -0.86139E-05   -0.17733E-07   126   0.128E-03
  31 F= -.82630864E+02 E0= -.82612907E+02  d E =-.359154E-01  mag=     0.9762
       N       E                     dE             d eps       ncg     rms          rms(c)
DAV:   1    -0.822319626050E+02    0.43035E-01   -0.26174E-01   134   0.244E+00    0.169E-01
DAV:   2    -0.822289158565E+02    0.30467E-02   -0.40342E-03   143   0.246E-01    0.101E-01
DAV:   3    -0.822273718668E+02    0.15440E-02   -0.22182E-03   142   0.150E-01    0.417E-02
DAV:   4    -0.822279649659E+02   -0.59310E-03   -0.31165E-04   175   0.566E-02    0.170E-02
DAV:   5    -0.822298915170E+02   -0.19266E-02   -0.56122E-04   126   0.691E-02    0.891E-03
DAV:   6    -0.822311321659E+02   -0.12406E-02   -0.21004E-04   151   0.416E-02    0.406E-03
DAV:   7    -0.822317042625E+02   -0.57210E-03   -0.30384E-05   150   0.164E-02    0.247E-03
DAV:   8    -0.822321018087E+02   -0.39755E-03   -0.20877E-05   157   0.134E-02    0.166E-03
DAV:   9    -0.822323438008E+02   -0.24199E-03   -0.22822E-05   141   0.125E-02    0.108E-03
DAV:  10    -0.822324408594E+02   -0.97059E-04   -0.46885E-06   125   0.547E-03    0.754E-04
DAV:  11    -0.822324932981E+02   -0.52439E-04   -0.26844E-06   126   0.421E-03    0.505E-04
DAV:  12    -0.822325455688E+02   -0.52271E-04   -0.19203E-06   134   0.375E-03    0.308E-04
DAV:  13    -0.822325739175E+02   -0.28349E-04   -0.64958E-07   142   0.226E-03    0.221E-04
DAV:  14    -0.822325918779E+02   -0.17960E-04   -0.42004E-07   120   0.194E-03    0.156E-04
DAV:  15    -0.822326020305E+02   -0.10153E-04   -0.35839E-07   118   0.160E-03    0.947E-05
DAV:  16    -0.822326072675E+02   -0.52371E-05   -0.11055E-07   120   0.978E-04
  32 F= -.82588642E+02 E0= -.82571099E+02  d E =-.350858E-01  mag=     0.9762
       N       E                     dE             d eps       ncg     rms          rms(c)
DAV:   1    -0.823151206399E+02   -0.82519E-01   -0.49964E-01   136   0.246E+00    0.251E-01
DAV:   2    -0.823110405689E+02    0.40801E-02   -0.13847E-02   151   0.368E-01    0.142E-01
DAV:   3    -0.822936777517E+02    0.17363E-01   -0.99166E-03   135   0.287E-01    0.683E-02
DAV:   4    -0.822978058802E+02   -0.41281E-02   -0.40296E-03   150   0.194E-01    0.307E-02
DAV:   5    -0.823051971918E+02   -0.73913E-02   -0.14207E-03   143   0.115E-01    0.171E-02
DAV:   6    -0.823097396669E+02   -0.45425E-02   -0.93384E-04   136   0.920E-02    0.896E-03
DAV:   7    -0.823122328982E+02   -0.24932E-02   -0.33972E-04   158   0.559E-02    0.554E-03
DAV:   8    -0.823139313283E+02   -0.16984E-02   -0.21005E-04   143   0.412E-02    0.352E-03
DAV:   9    -0.823149390085E+02   -0.10077E-02   -0.87344E-05   133   0.268E-02    0.255E-03
DAV:  10    -0.823154622577E+02   -0.52325E-03   -0.43237E-05   124   0.190E-02    0.166E-03
DAV:  11    -0.823157695128E+02   -0.30726E-03   -0.15022E-05   126   0.109E-02    0.111E-03
DAV:  12    -0.823159058038E+02   -0.13629E-03   -0.48417E-06   135   0.680E-03    0.776E-04
DAV:  13    -0.823160270882E+02   -0.12128E-03   -0.39324E-06   118   0.477E-03    0.494E-04
DAV:  14    -0.823160960861E+02   -0.68998E-04   -0.22270E-06   126   0.398E-03    0.327E-04
DAV:  15    -0.823161360874E+02   -0.40001E-04   -0.16429E-06   118   0.298E-03    0.215E-04
DAV:  16    -0.823161501069E+02   -0.14020E-04   -0.51760E-07   128   0.197E-03    0.148E-04
DAV:  17    -0.823161580855E+02   -0.79786E-05   -0.21983E-07   120   0.118E-03
  33 F= -.82671838E+02 E0= -.82653843E+02  d E =-.359892E-01  mag=     0.9771
       N       E                     dE             d eps       ncg     rms          rms(c)
DAV:   1    -0.822726653426E+02    0.43485E-01   -0.24313E-01   134   0.179E+00    0.157E-01
DAV:   2    -0.822697343934E+02    0.29309E-02   -0.48464E-03   143   0.243E-01    0.893E-02
DAV:   3    -0.822687237961E+02    0.10106E-02   -0.20113E-03   142   0.137E-01    0.450E-02
DAV:   4    -0.822689323559E+02   -0.20856E-03   -0.34383E-04   167   0.544E-02    0.178E-02
DAV:   5    -0.822710812798E+02   -0.21489E-02   -0.62709E-04   134   0.732E-02    0.909E-03
DAV:   6    -0.822723993860E+02   -0.13181E-02   -0.23412E-04   142   0.438E-02    0.439E-03
DAV:   7    -0.822730590261E+02   -0.65964E-03   -0.40253E-05   152   0.187E-02    0.261E-03
DAV:   8    -0.822734567311E+02   -0.39770E-03   -0.16173E-05   157   0.122E-02    0.180E-03
DAV:   9    -0.822737760191E+02   -0.31929E-03   -0.30810E-05   140   0.147E-02    0.112E-03
DAV:  10    -0.822738938384E+02   -0.11782E-03   -0.74137E-06   134   0.713E-03    0.818E-04
DAV:  11    -0.822739492902E+02   -0.55452E-04   -0.28507E-06   127   0.469E-03    0.539E-04
DAV:  12    -0.822740041537E+02   -0.54863E-04   -0.22952E-06   134   0.409E-03    0.346E-04
DAV:  13    -0.822740335664E+02   -0.29413E-04   -0.71376E-07   128   0.272E-03    0.233E-04
DAV:  14    -0.822740518115E+02   -0.18245E-04   -0.47902E-07   117   0.222E-03    0.169E-04
DAV:  15    -0.822740610928E+02   -0.92812E-05   -0.36290E-07   119   0.175E-03
  34 F= -.82629919E+02 E0= -.82612161E+02  d E =-.355167E-01  mag=     0.9766
       N       E                     dE             d eps       ncg     rms          rms(c)
DAV:   1    -0.822768116622E+02   -0.27599E-02   -0.46378E-01   133   0.259E+00    0.185E-01
DAV:   2    -0.822771467154E+02   -0.33505E-03   -0.46682E-03   141   0.278E-01    0.104E-01
DAV:   3    -0.822766221834E+02    0.52453E-03   -0.11927E-03   141   0.114E-01    0.537E-02
DAV:   4    -0.822769194929E+02   -0.29731E-03   -0.21704E-04   168   0.604E-02    0.100E-02
DAV:   5    -0.822777908966E+02   -0.87140E-03   -0.12462E-04   126   0.369E-02    0.478E-03
DAV:   6    -0.822781696052E+02   -0.37871E-03   -0.25701E-05   143   0.160E-02    0.234E-03
DAV:   7    -0.822783542744E+02   -0.18467E-03   -0.11006E-05   152   0.104E-02    0.143E-03
DAV:   8    -0.822784533630E+02   -0.99089E-04   -0.42068E-06   126   0.673E-03    0.971E-04
DAV:   9    -0.822785597881E+02   -0.10643E-03   -0.11181E-05   142   0.926E-03    0.863E-04
DAV:  10    -0.822786138572E+02   -0.54069E-04   -0.24929E-06   144   0.497E-03    0.538E-04
DAV:  11    -0.822786591671E+02   -0.45310E-04   -0.17210E-06   125   0.386E-03    0.392E-04
DAV:  12    -0.822786809618E+02   -0.21795E-04   -0.46874E-07   127   0.219E-03    0.265E-04
DAV:  13    -0.822786983902E+02   -0.17428E-04   -0.29156E-07   110   0.162E-03    0.193E-04
DAV:  14    -0.822787164010E+02   -0.18011E-04   -0.31165E-07   127   0.150E-03    0.130E-04
DAV:  15    -0.822787228903E+02   -0.64894E-05   -0.11326E-07   151   0.104E-03
  35 F= -.82634579E+02 E0= -.82616617E+02  d E =-.359249E-01  mag=     0.9764
       N       E                     dE             d eps       ncg     rms          rms(c)
DAV:   1    -0.823244979465E+02   -0.45782E-01   -0.25270E-01   140   0.191E+00    0.248E-01
DAV:   2    -0.823219375897E+02    0.25604E-02   -0.85974E-03   143   0.346E-01    0.136E-01
DAV:   3    -0.823100919555E+02    0.11846E-01   -0.10910E-02   144   0.314E-01    0.687E-02
DAV:   4    -0.823104394669E+02   -0.34751E-03   -0.37183E-03   142   0.187E-01    0.324E-02
DAV:   5    -0.823172123069E+02   -0.67728E-02   -0.18985E-03   144   0.133E-01    0.178E-02
DAV:   6    -0.823205618639E+02   -0.33496E-02   -0.63086E-04   144   0.780E-02    0.854E-03
DAV:   7    -0.823218245500E+02   -0.12627E-02   -0.14057E-04   152   0.367E-02    0.530E-03
DAV:   8    -0.823230898849E+02   -0.12653E-02   -0.14954E-04   150   0.350E-02    0.323E-03
DAV:   9    -0.823237075175E+02   -0.61763E-03   -0.44642E-05   135   0.209E-02    0.241E-03
DAV:  10    -0.823242788454E+02   -0.57133E-03   -0.58561E-05   117   0.208E-02    0.154E-03
DAV:  11    -0.823244661817E+02   -0.18734E-03   -0.81516E-06   144   0.881E-03    0.970E-04
DAV:  12    -0.823245694493E+02   -0.10327E-03   -0.51824E-06   126   0.638E-03    0.773E-04
DAV:  13    -0.823246559572E+02   -0.86508E-04   -0.25862E-06   127   0.486E-03    0.484E-04
DAV:  14    -0.823247260379E+02   -0.70081E-04   -0.20462E-06   127   0.427E-03    0.329E-04
DAV:  15    -0.823247555216E+02   -0.29484E-04   -0.12074E-06   112   0.309E-03    0.244E-04
DAV:  16    -0.823247676432E+02   -0.12122E-04   -0.36793E-07   142   0.209E-03    0.132E-04
DAV:  17    -0.823247767678E+02   -0.91247E-05   -0.15488E-07   126   0.130E-03
  36 F= -.82680581E+02 E0= -.82665379E+02  d E =-.304027E-01  mag=     0.9802
       N       E                     dE             d eps       ncg     rms          rms(c)
DAV:   1    -0.822037955187E+02    0.12097E+00   -0.60215E-01   150   0.298E+00    0.479E-01
DAV:   2    -0.821690930009E+02    0.34703E-01   -0.65334E-02   142   0.867E-01    0.262E-01
DAV:   3    -0.821741315389E+02   -0.50385E-02   -0.11742E-02   157   0.348E-01    0.136E-01
DAV:   4    -0.821861805132E+02   -0.12049E-01   -0.35156E-03   158   0.192E-01    0.608E-02
DAV:   5    -0.821980247366E+02   -0.11844E-01   -0.38448E-03   140   0.189E-01    0.312E-02
DAV:   6    -0.822056120144E+02   -0.75873E-02   -0.16191E-03   149   0.129E-01    0.184E-02
DAV:   7    -0.822118761854E+02   -0.62642E-02   -0.15509E-03   159   0.115E-01    0.104E-02
DAV:   8    -0.822136392974E+02   -0.17631E-02   -0.12920E-04   159   0.361E-02    0.724E-03
DAV:   9    -0.822152965080E+02   -0.16572E-02   -0.97482E-05   140   0.279E-02    0.557E-03
DAV:  10    -0.822162496249E+02   -0.95312E-03   -0.10203E-04   135   0.271E-02    0.351E-03
DAV:  11    -0.822168337148E+02   -0.58409E-03   -0.56291E-05   133   0.192E-02    0.283E-03
DAV:  12    -0.822171096063E+02   -0.27589E-03   -0.15891E-05   134   0.114E-02    0.153E-03
DAV:  13    -0.822173724672E+02   -0.26286E-03   -0.20087E-05   125   0.109E-02    0.164E-03
DAV:  14    -0.822174392490E+02   -0.66782E-04   -0.38936E-06   136   0.557E-03    0.108E-03
DAV:  15    -0.822175251687E+02   -0.85920E-04   -0.36995E-06   109   0.567E-03    0.105E-03
DAV:  16    -0.822175673415E+02   -0.42173E-04   -0.26783E-06   120   0.406E-03    0.844E-04
DAV:  17    -0.822175816592E+02   -0.14318E-04   -0.70769E-07   136   0.253E-03    0.466E-04
DAV:  18    -0.822175966185E+02   -0.14959E-04   -0.57029E-07   120   0.224E-03    0.206E-04
DAV:  19    -0.822176087015E+02   -0.12083E-04   -0.34377E-07   112   0.159E-03    0.310E-04
DAV:  20    -0.822176157989E+02   -0.70973E-05   -0.24483E-07   128   0.128E-03
  37 F= -.82573528E+02 E0= -.82553308E+02  d E =-.404394E-01  mag=     0.9736
       N       E                     dE             d eps       ncg     rms          rms(c)
DAV:   1    -0.822340471149E+02   -0.16438E-01   -0.28163E-01   132   0.189E+00    0.279E-01
DAV:   2    -0.822254259787E+02    0.86211E-02   -0.26367E-02   151   0.544E-01    0.161E-01
DAV:   3    -0.822016676192E+02    0.23758E-01   -0.14272E-02   144   0.363E-01    0.794E-02
DAV:   4    -0.822111309962E+02   -0.94634E-02   -0.10409E-02   142   0.291E-01    0.384E-02
DAV:   5    -0.822215470588E+02   -0.10416E-01   -0.24550E-03   144   0.151E-01    0.202E-02
DAV:   6    -0.822272370861E+02   -0.56900E-02   -0.12383E-03   144   0.108E-01    0.114E-02
DAV:   7    -0.822300343985E+02   -0.27973E-02   -0.30160E-04   152   0.544E-02    0.690E-03
DAV:   8    -0.822323554669E+02   -0.23211E-02   -0.41603E-04   142   0.571E-02    0.428E-03
DAV:   9    -0.822336170248E+02   -0.12616E-02   -0.13996E-04   134   0.346E-02    0.326E-03
DAV:  10    -0.822343036702E+02   -0.68665E-03   -0.57888E-05   116   0.215E-02    0.194E-03
DAV:  11    -0.822345969936E+02   -0.29332E-03   -0.20193E-05   135   0.117E-02    0.139E-03
DAV:  12    -0.822347394050E+02   -0.14241E-03   -0.86429E-06   134   0.862E-03    0.998E-04
DAV:  13    -0.822348873500E+02   -0.14794E-03   -0.10223E-05   119   0.900E-03    0.628E-04
DAV:  14    -0.822349678190E+02   -0.80469E-04   -0.41376E-06   144   0.596E-03    0.454E-04
DAV:  15    -0.822350051450E+02   -0.37326E-04   -0.16846E-06   111   0.343E-03    0.267E-04
DAV:  16    -0.822350258949E+02   -0.20750E-04   -0.78467E-07   142   0.252E-03    0.184E-04
DAV:  17    -0.822350398491E+02   -0.13954E-04   -0.34018E-07   119   0.153E-03    0.128E-04
DAV:  18    -0.822350481474E+02   -0.82984E-05   -0.19641E-07   120   0.983E-04
  38 F= -.82591078E+02 E0= -.82572579E+02  d E =-.369997E-01  mag=     0.9743
       N       E                     dE             d eps       ncg     rms          rms(c)
DAV:   1    -0.823136201271E+02   -0.78580E-01   -0.49305E-01   134   0.243E+00    0.223E-01
DAV:   2    -0.823118223080E+02    0.17978E-02   -0.86825E-03   151   0.302E-01    0.126E-01
DAV:   3    -0.823022609254E+02    0.95614E-02   -0.73085E-03   144   0.246E-01    0.631E-02
DAV:   4    -0.823048719439E+02   -0.26110E-02   -0.13732E-03   158   0.124E-01    0.259E-02
DAV:   5    -0.823087444739E+02   -0.38725E-02   -0.83899E-04   132   0.918E-02    0.131E-02
DAV:   6    -0.823108799188E+02   -0.21354E-02   -0.38190E-04   143   0.597E-02    0.761E-03
DAV:   7    -0.823126493809E+02   -0.17695E-02   -0.27688E-04   175   0.499E-02    0.476E-03
DAV:   8    -0.823133701699E+02   -0.72079E-03   -0.56544E-05   158   0.231E-02    0.316E-03
DAV:   9    -0.823140263489E+02   -0.65618E-03   -0.50238E-05   135   0.214E-02    0.329E-03
DAV:  10    -0.823142908127E+02   -0.26446E-03   -0.24548E-05   149   0.140E-02    0.260E-03
DAV:  11    -0.823144855754E+02   -0.19476E-03   -0.12981E-05   133   0.113E-02    0.114E-03
DAV:  12    -0.823146014430E+02   -0.11587E-03   -0.51680E-06   126   0.607E-03    0.108E-03
DAV:  13    -0.823147083025E+02   -0.10686E-03   -0.32980E-06   127   0.488E-03    0.529E-04
DAV:  14    -0.823147873522E+02   -0.79050E-04   -0.21580E-06   127   0.440E-03    0.487E-04
DAV:  15    -0.823148325951E+02   -0.45243E-04   -0.12933E-06   119   0.299E-03    0.366E-04
DAV:  16    -0.823148532017E+02   -0.20607E-04   -0.57368E-07   120   0.228E-03    0.142E-04
DAV:  17    -0.823148645385E+02   -0.11337E-04   -0.28911E-07   120   0.165E-03    0.163E-04
DAV:  18    -0.823148721471E+02   -0.76086E-05   -0.18120E-07   128   0.112E-03
  39 F= -.82670556E+02 E0= -.82653460E+02  d E =-.341912E-01  mag=     0.9787
       N       E                     dE             d eps       ncg     rms          rms(c)
DAV:   1    -0.822696064846E+02    0.45258E-01   -0.24299E-01   132   0.177E+00    0.150E-01
DAV:   2    -0.822674427957E+02    0.21637E-02   -0.49334E-03   152   0.246E-01    0.859E-02
DAV:   3    -0.822649899253E+02    0.24529E-02   -0.21842E-03   142   0.146E-01    0.443E-02
DAV:   4    -0.822645423792E+02    0.44755E-03   -0.40714E-04   176   0.648E-02    0.163E-02
DAV:   5    -0.822672821399E+02   -0.27398E-02   -0.88643E-04   132   0.861E-02    0.802E-03
DAV:   6    -0.822689585140E+02   -0.16764E-02   -0.28469E-04   135   0.481E-02    0.415E-03
DAV:   7    -0.822696689704E+02   -0.71046E-03   -0.35218E-05   152   0.180E-02    0.247E-03
DAV:   8    -0.822701008372E+02   -0.43187E-03   -0.13624E-05   150   0.113E-02    0.163E-03
DAV:   9    -0.822705158333E+02   -0.41500E-03   -0.42796E-05   141   0.177E-02    0.106E-03
DAV:  10    -0.822707019510E+02   -0.18612E-03   -0.10259E-05   136   0.905E-03    0.751E-04
DAV:  11    -0.822707767253E+02   -0.74774E-04   -0.26825E-06   128   0.466E-03    0.510E-04
DAV:  12    -0.822708242235E+02   -0.47498E-04   -0.16624E-06   120   0.345E-03    0.369E-04
DAV:  13    -0.822708453328E+02   -0.21109E-04   -0.65530E-07   136   0.245E-03    0.237E-04
DAV:  14    -0.822708667183E+02   -0.21386E-04   -0.48981E-07   111   0.201E-03    0.182E-04
DAV:  15    -0.822708751788E+02   -0.84605E-05   -0.17955E-07   128   0.138E-03
  40 F= -.82626736E+02 E0= -.82608658E+02  d E =-.361545E-01  mag=     0.9761
       N       E                     dE             d eps       ncg     rms          rms(c)
DAV:   1    -0.822801577229E+02   -0.92910E-02   -0.46877E-01   132   0.257E+00    0.190E-01
DAV:   2    -0.822805321034E+02   -0.37438E-03   -0.49629E-03   142   0.284E-01    0.107E-01
DAV:   3    -0.822795989236E+02    0.93318E-03   -0.16347E-03   150   0.127E-01    0.564E-02
DAV:   4    -0.822796752179E+02   -0.76294E-04   -0.23200E-04   167   0.606E-02    0.107E-02
DAV:   5    -0.822808071774E+02   -0.11320E-02   -0.23913E-04   125   0.486E-02    0.496E-03
DAV:   6    -0.822812375220E+02   -0.43034E-03   -0.36767E-05   143   0.181E-02    0.280E-03
DAV:   7    -0.822815588739E+02   -0.32135E-03   -0.27405E-05   152   0.153E-02    0.153E-03
DAV:   8    -0.822816690997E+02   -0.11023E-03   -0.56035E-06   126   0.747E-03    0.111E-03
DAV:   9    -0.822817746229E+02   -0.10552E-03   -0.12035E-05   135   0.938E-03    0.763E-04
DAV:  10    -0.822818372780E+02   -0.62655E-04   -0.50148E-06   126   0.632E-03    0.544E-04
DAV:  11    -0.822818847541E+02   -0.47476E-04   -0.22718E-06   126   0.402E-03    0.354E-04
DAV:  12    -0.822819110753E+02   -0.26321E-04   -0.71442E-07   128   0.245E-03    0.263E-04
DAV:  13    -0.822819376098E+02   -0.26534E-04   -0.57285E-07   124   0.192E-03    0.192E-04
DAV:  14    -0.822819540968E+02   -0.16487E-04   -0.31494E-07   134   0.154E-03    0.127E-04
DAV:  15    -0.822819615365E+02   -0.74397E-05   -0.14372E-07   144   0.117E-03
  41 F= -.82637816E+02 E0= -.82620205E+02  d E =-.352206E-01  mag=     0.9769
       N       E                     dE             d eps       ncg     rms          rms(c)
DAV:   1    -0.822033021066E+02    0.78652E-01   -0.26898E-01   132   0.199E+00    0.264E-01
DAV:   2    -0.821865530168E+02    0.16749E-01   -0.20363E-02   143   0.482E-01    0.148E-01
DAV:   3    -0.821865302375E+02    0.22779E-04   -0.38088E-03   157   0.188E-01    0.772E-02
DAV:   4    -0.821905392302E+02   -0.40090E-02   -0.11783E-03   166   0.106E-01    0.315E-02
DAV:   5    -0.821961850519E+02   -0.56458E-02   -0.12867E-03   140   0.109E-01    0.167E-02
DAV:   6    -0.822001841138E+02   -0.39991E-02   -0.98878E-04   174   0.941E-02    0.994E-03
DAV:   7    -0.822032077884E+02   -0.30237E-02   -0.58854E-04   143   0.689E-02    0.548E-03
DAV:   8    -0.822043569592E+02   -0.11492E-02   -0.56639E-05   159   0.233E-02    0.387E-03
DAV:   9    -0.822051978867E+02   -0.84093E-03   -0.36495E-05   135   0.178E-02    0.274E-03
DAV:  10    -0.822057303768E+02   -0.53249E-03   -0.56117E-05   142   0.198E-02    0.180E-03
DAV:  11    -0.822059897508E+02   -0.25937E-03   -0.12776E-05   128   0.973E-03    0.125E-03
DAV:  12    -0.822061518486E+02   -0.16210E-03   -0.75288E-06   143   0.688E-03    0.822E-04
DAV:  13    -0.822062709515E+02   -0.11910E-03   -0.58500E-06   118   0.611E-03    0.540E-04
DAV:  14    -0.822063056871E+02   -0.34736E-04   -0.13965E-06   134   0.332E-03    0.388E-04
DAV:  15    -0.822063325744E+02   -0.26887E-04   -0.11623E-06   110   0.270E-03    0.262E-04
DAV:  16    -0.822063449702E+02   -0.12396E-04   -0.72536E-07   126   0.203E-03    0.194E-04
DAV:  17    -0.822063502589E+02   -0.52886E-05   -0.12486E-07   128   0.108E-03
  42 F= -.82562273E+02 E0= -.82540374E+02  d E =-.437980E-01  mag=     0.9705
       N       E                     dE             d eps       ncg     rms          rms(c)
DAV:   1    -0.823342255739E+02   -0.12788E+00   -0.55976E-01   168   0.284E+00    0.462E-01
DAV:   2    -0.823197842230E+02    0.14441E-01   -0.49740E-02   152   0.733E-01    0.256E-01
DAV:   3    -0.822843685025E+02    0.35416E-01   -0.25526E-02   144   0.496E-01    0.124E-01
DAV:   4    -0.822965848120E+02   -0.12216E-01   -0.18186E-02   134   0.410E-01    0.574E-02
DAV:   5    -0.823134646743E+02   -0.16880E-01   -0.46373E-03   151   0.207E-01    0.329E-02
DAV:   6    -0.823227379530E+02   -0.92733E-02   -0.23414E-03   134   0.151E-01    0.179E-02
DAV:   7    -0.823269956021E+02   -0.42576E-02   -0.53444E-04   168   0.765E-02    0.110E-02
DAV:   8    -0.823299674327E+02   -0.29718E-02   -0.64559E-04   150   0.741E-02    0.687E-03
DAV:   9    -0.823316449489E+02   -0.16775E-02   -0.17732E-04   144   0.412E-02    0.513E-03
DAV:  10    -0.823326657878E+02   -0.10208E-02   -0.93876E-05   117   0.307E-02    0.327E-03
DAV:  11    -0.823332966691E+02   -0.63088E-03   -0.86435E-05   134   0.258E-02    0.206E-03
DAV:  12    -0.823335013237E+02   -0.20465E-03   -0.15707E-05   143   0.134E-02    0.152E-03
DAV:  13    -0.823337855713E+02   -0.28425E-03   -0.24160E-05   127   0.142E-02    0.115E-03
DAV:  14    -0.823339517584E+02   -0.16619E-03   -0.98821E-06   136   0.918E-03    0.595E-04
DAV:  15    -0.823340618215E+02   -0.11006E-03   -0.57245E-06   127   0.657E-03    0.536E-04
DAV:  16    -0.823340916551E+02   -0.29834E-04   -0.11548E-06   135   0.366E-03    0.309E-04
DAV:  17    -0.823341202717E+02   -0.28617E-04   -0.68102E-07   126   0.235E-03    0.264E-04
DAV:  18    -0.823341410296E+02   -0.20758E-04   -0.54411E-07   118   0.183E-03    0.159E-04
DAV:  19    -0.823341463831E+02   -0.53535E-05   -0.19059E-07   128   0.124E-03
  43 F= -.82689939E+02 E0= -.82676038E+02  d E =-.278011E-01  mag=     0.9824
       N       E                     dE             d eps       ncg     rms          rms(c)
DAV:   1    -0.823163159435E+02    0.17825E-01   -0.10187E+00   150   0.502E+00    0.326E-01
DAV:   2    -0.822966099314E+02    0.19706E-01   -0.42131E-02   142   0.853E-01    0.184E-01
DAV:   3    -0.822916913726E+02    0.49186E-02   -0.61488E-03   150   0.266E-01    0.923E-02
DAV:   4    -0.823019599805E+02   -0.10269E-01   -0.34187E-03   143   0.201E-01    0.351E-02
DAV:   5    -0.823093128739E+02   -0.73529E-02   -0.11075E-03   134   0.113E-01    0.166E-02
DAV:   6    -0.823137179767E+02   -0.44051E-02   -0.79237E-04   143   0.851E-02    0.912E-03
DAV:   7    -0.823161361150E+02   -0.24181E-02   -0.30397E-04   152   0.535E-02    0.537E-03
DAV:   8    -0.823177541141E+02   -0.16180E-02   -0.97979E-05   142   0.320E-02    0.374E-03
DAV:   9    -0.823187201161E+02   -0.96600E-03   -0.45091E-05   149   0.203E-02    0.276E-03
DAV:  10    -0.823194506287E+02   -0.73051E-03   -0.64705E-05   127   0.213E-02    0.205E-03
DAV:  11    -0.823195954744E+02   -0.14485E-03   -0.69687E-06   135   0.870E-03    0.141E-03
DAV:  12    -0.823197526025E+02   -0.15713E-03   -0.75859E-06   102   0.748E-03    0.106E-03
DAV:  13    -0.823198556293E+02   -0.10303E-03   -0.40854E-06   144   0.588E-03    0.651E-04
DAV:  14    -0.823199145616E+02   -0.58932E-04   -0.15936E-06   110   0.356E-03    0.453E-04
DAV:  15    -0.823199415468E+02   -0.26985E-04   -0.10399E-06   134   0.271E-03    0.290E-04
DAV:  16    -0.823199537098E+02   -0.12163E-04   -0.61396E-07   110   0.194E-03    0.156E-04
DAV:  17    -0.823199596449E+02   -0.59351E-05   -0.30349E-07   136   0.125E-03
  44 F= -.82675925E+02 E0= -.82657390E+02  d E =-.370701E-01  mag=     0.9686
       N       E                     dE             d eps       ncg     rms          rms(c)
DAV:   1    -0.822060535718E+02    0.11390E+00   -0.35207E+00   166   0.915E+00    0.502E-01
DAV:   2    -0.822046166003E+02    0.14370E-02   -0.71251E-02   151   0.124E+00    0.308E-01
DAV:   3    -0.822051651707E+02   -0.54857E-03   -0.52319E-03   144   0.322E-01    0.161E-01
DAV:   4    -0.822054868135E+02   -0.32164E-03   -0.19523E-03   142   0.229E-01    0.535E-02
DAV:   5    -0.822059499270E+02   -0.46311E-03   -0.30859E-04   150   0.953E-02    0.221E-02
DAV:   6    -0.822062322508E+02   -0.28232E-03   -0.10985E-04   142   0.543E-02    0.143E-02
DAV:   7    -0.822063338309E+02   -0.10158E-03   -0.16161E-05   120   0.225E-02    0.781E-03
DAV:   8    -0.822064649332E+02   -0.13110E-03   -0.19712E-05   141   0.205E-02    0.467E-03
DAV:   9    -0.822065473078E+02   -0.82375E-04   -0.36339E-06   135   0.892E-03    0.343E-03
DAV:  10    -0.822066146112E+02   -0.67303E-04   -0.54253E-06   124   0.983E-03    0.180E-03
DAV:  11    -0.822066476476E+02   -0.33036E-04   -0.47967E-06   126   0.651E-03    0.186E-03
DAV:  12    -0.822066488592E+02   -0.12115E-05   -0.26193E-06   141   0.454E-03
  45 F= -.82562377E+02 E0= -.82544804E+02  d E =-.351448E-01  mag=     0.9824
       N       E                     dE             d eps       ncg     rms          rms(c)
DAV:   1    -0.822644562137E+02   -0.57809E-01   -0.19335E+00   165   0.676E+00    0.339E-01
DAV:   2    -0.822645067875E+02   -0.50574E-04   -0.33909E-02   151   0.907E-01    0.217E-01
DAV:   3    -0.822596696740E+02    0.48371E-02   -0.36560E-03   158   0.294E-01    0.911E-02
DAV:   4    -0.822616795538E+02   -0.20099E-02   -0.10962E-03   133   0.152E-01    0.305E-02
DAV:   5    -0.822632966649E+02   -0.16171E-02   -0.19256E-04   159   0.619E-02    0.130E-02
DAV:   6    -0.822637299711E+02   -0.43331E-03   -0.28986E-05   152   0.274E-02    0.681E-03
DAV:   7    -0.822639671778E+02   -0.23721E-03   -0.10371E-05   142   0.147E-02    0.368E-03
DAV:   8    -0.822643077202E+02   -0.34054E-03   -0.21774E-05   143   0.155E-02    0.164E-03
DAV:   9    -0.822644373997E+02   -0.12968E-03   -0.21444E-06   152   0.593E-03    0.124E-03
DAV:  10    -0.822645735813E+02   -0.13618E-03   -0.24625E-06   127   0.536E-03    0.780E-04
DAV:  11    -0.822647013642E+02   -0.12778E-03   -0.34980E-06   127   0.526E-03    0.860E-04
DAV:  12    -0.822647627746E+02   -0.61410E-04   -0.21115E-06   152   0.392E-03    0.493E-04
DAV:  13    -0.822647948387E+02   -0.32064E-04   -0.78072E-07   112   0.280E-03    0.310E-04
DAV:  14    -0.822648121069E+02   -0.17268E-04   -0.35980E-07   135   0.174E-03    0.291E-04
DAV:  15    -0.822648183618E+02   -0.62549E-05   -0.12603E-07   135   0.108E-03
  46 F= -.82620673E+02 E0= -.82602298E+02  d E =-.367495E-01  mag=     0.9756
       N       E                     dE             d eps       ncg     rms          rms(c)
DAV:   1    -0.822637176607E+02    0.10944E-02   -0.41642E+00   132   0.967E+00    0.466E-01
DAV:   2    -0.822644286778E+02   -0.71102E-03   -0.59446E-02   166   0.118E+00    0.312E-01
DAV:   3    -0.822623961390E+02    0.20325E-02   -0.12118E-02   157   0.518E-01    0.972E-02
DAV:   4    -0.822626700593E+02   -0.27392E-03   -0.20322E-03   150   0.214E-01    0.439E-02
DAV:   5    -0.822631300084E+02   -0.45995E-03   -0.54711E-04   143   0.958E-02    0.200E-02
DAV:   6    -0.822631501656E+02   -0.20157E-04   -0.55523E-05   168   0.389E-02    0.933E-03
DAV:   7    -0.822631462267E+02    0.39389E-05   -0.10301E-05   133   0.157E-02
  47 F= -.82619001E+02 E0= -.82600691E+02  d E =-.366183E-01  mag=     0.9748
       N       E                     dE             d eps       ncg     rms          rms(c)
DAV:   1    -0.822810400808E+02   -0.17890E-01   -0.20107E+00   133   0.674E+00    0.304E-01
DAV:   2    -0.822798636503E+02    0.11764E-02   -0.25269E-02   159   0.741E-01    0.194E-01
DAV:   3    -0.822783564213E+02    0.15072E-02   -0.50366E-03   143   0.314E-01    0.643E-02
DAV:   4    -0.822793104051E+02   -0.95398E-03   -0.91988E-04   142   0.135E-01    0.309E-02
DAV:   5    -0.822802518018E+02   -0.94140E-03   -0.31558E-04   134   0.722E-02    0.152E-02
DAV:   6    -0.822806731074E+02   -0.42131E-03   -0.38829E-05   150   0.299E-02    0.836E-03
DAV:   7    -0.822810976487E+02   -0.42454E-03   -0.34838E-05   126   0.221E-02    0.371E-03
DAV:   8    -0.822812953509E+02   -0.19770E-03   -0.14695E-05   134   0.137E-02    0.227E-03
DAV:   9    -0.822813831164E+02   -0.87766E-04   -0.36289E-06   110   0.698E-03    0.148E-03
DAV:  10    -0.822814665562E+02   -0.83440E-04   -0.48182E-06   135   0.721E-03    0.148E-03
DAV:  11    -0.822814992162E+02   -0.32660E-04   -0.21278E-06   143   0.497E-03    0.905E-04
DAV:  12    -0.822815402312E+02   -0.41015E-04   -0.23966E-06   126   0.459E-03    0.613E-04
DAV:  13    -0.822815629593E+02   -0.22728E-04   -0.11766E-06   124   0.336E-03    0.370E-04
DAV:  14    -0.822815822880E+02   -0.19329E-04   -0.62978E-07   134   0.235E-03    0.238E-04
DAV:  15    -0.822815995879E+02   -0.17300E-04   -0.30950E-07   125   0.157E-03    0.159E-04
DAV:  16    -0.822816139420E+02   -0.14354E-04   -0.31243E-07   126   0.155E-03    0.112E-04
DAV:  17    -0.822816212278E+02   -0.72857E-05   -0.15826E-07   119   0.113E-03
  48 F= -.82637481E+02 E0= -.82622585E+02  d E =-.297916E-01  mag=     0.9819
       N       E                     dE             d eps       ncg     rms          rms(c)
DAV:   1    -0.822696006806E+02    0.12013E-01   -0.38711E+00   132   0.843E+00    0.383E-01
DAV:   2    -0.822551348996E+02    0.14466E-01   -0.60581E-02   152   0.936E-01    0.219E-01
DAV:   3    -0.822411230389E+02    0.14012E-01   -0.79208E-03   143   0.338E-01    0.814E-02
DAV:   4    -0.822493393714E+02   -0.82163E-02   -0.66967E-03   142   0.267E-01    0.369E-02
DAV:   5    -0.822583918900E+02   -0.90525E-02   -0.16336E-03   151   0.139E-01    0.211E-02
DAV:   6    -0.822642472621E+02   -0.58554E-02   -0.12206E-03   134   0.108E-01    0.108E-02
DAV:   7    -0.822665743678E+02   -0.23271E-02   -0.33462E-04   152   0.563E-02    0.620E-03
DAV:   8    -0.822681721289E+02   -0.15978E-02   -0.17904E-04   142   0.396E-02    0.377E-03
DAV:   9    -0.822693688192E+02   -0.11967E-02   -0.89665E-05   140   0.282E-02    0.273E-03
DAV:  10    -0.822701300668E+02   -0.76125E-03   -0.48183E-05   126   0.199E-02    0.178E-03
DAV:  11    -0.822706132252E+02   -0.48316E-03   -0.30410E-05   127   0.142E-02    0.132E-03
DAV:  12    -0.822707560210E+02   -0.14280E-03   -0.58947E-06   112   0.750E-03    0.837E-04
DAV:  13    -0.822708660848E+02   -0.11006E-03   -0.33679E-06   119   0.503E-03    0.610E-04
DAV:  14    -0.822709178879E+02   -0.51803E-04   -0.14314E-06   128   0.337E-03    0.427E-04
DAV:  15    -0.822709502417E+02   -0.32354E-04   -0.12570E-06   118   0.260E-03    0.254E-04
DAV:  16    -0.822709585932E+02   -0.83515E-05   -0.47018E-07   136   0.180E-03
  49 F= -.82626813E+02 E0= -.82607986E+02  d E =-.376530E-01  mag=     0.9744
       N       E                     dE             d eps       ncg     rms          rms(c)
DAV:   1    -0.822579034337E+02    0.13047E-01   -0.20005E+00   132   0.698E+00    0.294E-01
DAV:   2    -0.822560808437E+02    0.18226E-02   -0.28404E-02   152   0.809E-01    0.195E-01
DAV:   3    -0.822547258548E+02    0.13550E-02   -0.55928E-03   134   0.348E-01    0.646E-02
DAV:   4    -0.822556374229E+02   -0.91157E-03   -0.11506E-03   142   0.153E-01    0.311E-02
DAV:   5    -0.822564620143E+02   -0.82459E-03   -0.45392E-04   132   0.827E-02    0.149E-02
DAV:   6    -0.822568869827E+02   -0.42497E-03   -0.36633E-05   142   0.286E-02    0.878E-03
DAV:   7    -0.822573973341E+02   -0.51035E-03   -0.42440E-05   134   0.260E-02    0.476E-03
DAV:   8    -0.822576385203E+02   -0.24119E-03   -0.18745E-05   135   0.144E-02    0.291E-03
DAV:   9    -0.822577504589E+02   -0.11194E-03   -0.54372E-06   134   0.922E-03    0.158E-03
DAV:  10    -0.822578396561E+02   -0.89197E-04   -0.38210E-06   104   0.678E-03    0.146E-03
DAV:  11    -0.822579060780E+02   -0.66422E-04   -0.44208E-06   142   0.589E-03    0.114E-03
DAV:  12    -0.822579438976E+02   -0.37820E-04   -0.14827E-06   134   0.389E-03    0.598E-04
DAV:  13    -0.822579882581E+02   -0.44361E-04   -0.23310E-06   108   0.376E-03    0.430E-04
DAV:  14    -0.822580116867E+02   -0.23429E-04   -0.95084E-07   143   0.263E-03    0.261E-04
DAV:  15    -0.822580302823E+02   -0.18596E-04   -0.35533E-07   109   0.183E-03    0.164E-04
DAV:  16    -0.822580482528E+02   -0.17970E-04   -0.45632E-07   119   0.169E-03    0.117E-04
DAV:  17    -0.822580577083E+02   -0.94555E-05   -0.19525E-07   127   0.118E-03
  50 F= -.82613902E+02 E0= -.82595885E+02  d E =-.360335E-01  mag=     0.9817
       N       E                     dE             d eps       ncg     rms          rms(c)
DAV:   1    -0.822723919123E+02   -0.14344E-01   -0.41245E+00   132   0.971E+00    0.462E-01
DAV:   2    -0.822695013565E+02    0.28906E-02   -0.46242E-02   175   0.108E+00    0.293E-01
DAV:   3    -0.822618139978E+02    0.76874E-02   -0.13438E-02   149   0.547E-01    0.954E-02
DAV:   4    -0.822650647776E+02   -0.32508E-02   -0.35802E-03   142   0.267E-01    0.454E-02
DAV:   5    -0.822669544413E+02   -0.18897E-02   -0.42849E-04   140   0.917E-02    0.150E-02
DAV:   6    -0.822672788578E+02   -0.32442E-03   -0.42654E-05   160   0.350E-02    0.825E-03
DAV:   7    -0.822676209291E+02   -0.34207E-03   -0.14452E-05   127   0.186E-02    0.419E-03
DAV:   8    -0.822679028821E+02   -0.28195E-03   -0.15793E-05   136   0.144E-02    0.238E-03
DAV:   9    -0.822681667971E+02   -0.26392E-03   -0.13759E-05   159   0.120E-02    0.122E-03
DAV:  10    -0.822682886071E+02   -0.12181E-03   -0.14407E-06   144   0.429E-03    0.835E-04
DAV:  11    -0.822684848680E+02   -0.19626E-03   -0.45995E-06   135   0.545E-03    0.543E-04
DAV:  12    -0.822685483135E+02   -0.63446E-04   -0.16764E-06   143   0.327E-03    0.456E-04
DAV:  13    -0.822685890262E+02   -0.40713E-04   -0.87605E-07   144   0.259E-03    0.252E-04
DAV:  14    -0.822686094329E+02   -0.20407E-04   -0.35261E-07   127   0.157E-03    0.214E-04
DAV:  15    -0.822686149777E+02   -0.55448E-05   -0.10539E-07   136   0.920E-04
  51 F= -.82624477E+02 E0= -.82605877E+02  d E =-.372009E-01  mag=     0.9652
       N       E                     dE             d eps       ncg     rms          rms(c)
DAV:   1    -0.822634620292E+02    0.51474E-02   -0.20186E+00   132   0.672E+00    0.306E-01
DAV:   2    -0.822628307988E+02    0.63123E-03   -0.18205E-02   174   0.658E-01    0.201E-01
DAV:   3    -0.822621593380E+02    0.67146E-03   -0.46274E-03   142   0.328E-01    0.529E-02
DAV:   4    -0.822621070480E+02    0.52290E-04   -0.11491E-03   142   0.155E-01    0.277E-02
DAV:   5    -0.822618697617E+02    0.23729E-03   -0.15981E-04   140   0.561E-02    0.113E-02
DAV:   6    -0.822620571008E+02   -0.18734E-03   -0.36770E-05   126   0.276E-02    0.558E-03
DAV:   7    -0.822621726098E+02   -0.11551E-03   -0.21408E-05   126   0.189E-02    0.316E-03
DAV:   8    -0.822622141341E+02   -0.41524E-04   -0.19940E-06   144   0.727E-03    0.183E-03
DAV:   9    -0.822622655023E+02   -0.51368E-04   -0.16894E-06   102   0.580E-03    0.994E-04
DAV:  10    -0.822623005986E+02   -0.35096E-04   -0.81404E-07   136   0.360E-03    0.768E-04
DAV:  11    -0.822623449640E+02   -0.44365E-04   -0.12999E-06   108   0.359E-03    0.408E-04
DAV:  12    -0.822623775988E+02   -0.32635E-04   -0.97048E-07   134   0.281E-03    0.317E-04
DAV:  13    -0.822623933549E+02   -0.15756E-04   -0.25682E-07   144   0.165E-03    0.218E-04
DAV:  14    -0.822624139581E+02   -0.20603E-04   -0.22747E-07   119   0.127E-03    0.162E-04
DAV:  15    -0.822624271728E+02   -0.13215E-04   -0.11054E-07   133   0.973E-04    0.102E-04
DAV:  16    -0.822624346660E+02   -0.74933E-05   -0.63939E-08   128   0.804E-04
  52 F= -.82618451E+02 E0= -.82601545E+02  d E =-.338110E-01  mag=     0.9748
       N       E                     dE             d eps       ncg     rms          rms(c)
DAV:   1    -0.822652574619E+02   -0.28303E-02   -0.40235E+00   132   0.949E+00    0.431E-01
DAV:   2    -0.822620506132E+02    0.32068E-02   -0.40518E-02   134   0.980E-01    0.287E-01
DAV:   3    -0.822613289952E+02    0.72162E-03   -0.11426E-02   141   0.512E-01    0.804E-02
DAV:   4    -0.822623569692E+02   -0.10280E-02   -0.24720E-03   135   0.222E-01    0.360E-02
DAV:   5    -0.822627917615E+02   -0.43479E-03   -0.25603E-04   164   0.707E-02    0.147E-02
DAV:   6    -0.822629905292E+02   -0.19877E-03   -0.26276E-05   136   0.256E-02    0.787E-03
DAV:   7    -0.822631430715E+02   -0.15254E-03   -0.14569E-05   126   0.172E-02    0.346E-03
DAV:   8    -0.822632005255E+02   -0.57454E-04   -0.48237E-06   128   0.986E-03    0.194E-03
DAV:   9    -0.822632314988E+02   -0.30973E-04   -0.20149E-06   112   0.580E-03    0.131E-03
DAV:  10    -0.822632575332E+02   -0.26034E-04   -0.29251E-06   117   0.565E-03    0.113E-03
DAV:  11    -0.822632610343E+02   -0.35010E-05   -0.14823E-06   111   0.408E-03
  53 F= -.82618948E+02 E0= -.82599617E+02  d E =-.386617E-01  mag=     0.9770
       N       E                     dE             d eps       ncg     rms          rms(c)
DAV:   1    -0.822729428733E+02   -0.96853E-02   -0.19111E+00   132   0.643E+00    0.271E-01
DAV:   2    -0.822725749247E+02    0.36795E-03   -0.14835E-02   158   0.580E-01    0.174E-01
DAV:   3    -0.822677626836E+02    0.48122E-02   -0.53839E-03   149   0.329E-01    0.397E-02
DAV:   4    -0.822695122912E+02   -0.17496E-02   -0.13432E-03   142   0.152E-01    0.197E-02
DAV:   5    -0.822703651681E+02   -0.85288E-03   -0.20289E-04   157   0.561E-02    0.102E-02
DAV:   6    -0.822709464101E+02   -0.58124E-03   -0.40123E-05   127   0.259E-02    0.526E-03
DAV:   7    -0.822715222336E+02   -0.57582E-03   -0.33999E-05   158   0.196E-02    0.237E-03
DAV:   8    -0.822718540382E+02   -0.33180E-03   -0.21608E-05   164   0.145E-02    0.135E-03
DAV:   9    -0.822720657281E+02   -0.21169E-03   -0.83923E-06   120   0.945E-03    0.992E-04
DAV:  10    -0.822723247587E+02   -0.25903E-03   -0.11722E-05   134   0.881E-03    0.709E-04
DAV:  11    -0.822724091294E+02   -0.84371E-04   -0.16134E-06   135   0.411E-03    0.479E-04
DAV:  12    -0.822724570824E+02   -0.47953E-04   -0.11705E-06   110   0.292E-03    0.290E-04
DAV:  13    -0.822725015056E+02   -0.44423E-04   -0.50160E-07   127   0.196E-03    0.198E-04
DAV:  14    -0.822725183499E+02   -0.16844E-04   -0.16132E-07   136   0.123E-03    0.138E-04
DAV:  15    -0.822725309962E+02   -0.12646E-04   -0.11842E-07   118   0.102E-03    0.850E-05
DAV:  16    -0.822725353930E+02   -0.43967E-05   -0.59982E-08   135   0.695E-04
  54 F= -.82628390E+02 E0= -.82609992E+02  d E =-.367958E-01  mag=     0.9754
       N       E                     dE             d eps       ncg     rms          rms(c)
DAV:   1    -0.822744689659E+02   -0.19380E-02   -0.35977E+00   132   0.851E+00    0.321E-01
DAV:   2    -0.822736784467E+02    0.79052E-03   -0.16924E-02   143   0.564E-01    0.192E-01
DAV:   3    -0.822725756973E+02    0.11027E-02   -0.29907E-03   142   0.242E-01    0.356E-02
DAV:   4    -0.822736029084E+02   -0.10272E-02   -0.60479E-04   152   0.101E-01    0.206E-02
DAV:   5    -0.822739946488E+02   -0.39174E-03   -0.85443E-05   144   0.390E-02    0.102E-02
DAV:   6    -0.822741328520E+02   -0.13820E-03   -0.22953E-05   144   0.203E-02    0.458E-03
DAV:   7    -0.822742332531E+02   -0.10040E-03   -0.49997E-06   118   0.106E-02    0.179E-03
DAV:   8    -0.822742725815E+02   -0.39328E-04   -0.12991E-06   136   0.515E-03    0.115E-03
DAV:   9    -0.822742918458E+02   -0.19264E-04   -0.85786E-07   112   0.359E-03    0.755E-04
DAV:  10    -0.822743190466E+02   -0.27201E-04   -0.14391E-06   136   0.366E-03    0.694E-04
DAV:  11    -0.822743369613E+02   -0.17915E-04   -0.65886E-07   120   0.257E-03    0.395E-04
DAV:  12    -0.822743538051E+02   -0.16844E-04   -0.97305E-07   110   0.267E-03    0.352E-04
DAV:  13    -0.822743581683E+02   -0.43632E-05   -0.26104E-07   144   0.154E-03
  55 F= -.82630218E+02 E0= -.82612859E+02  d E =-.347178E-01  mag=     0.9775
       N       E                     dE             d eps       ncg     rms          rms(c)
DAV:   1    -0.822637160686E+02    0.10638E-01   -0.19131E+00   132   0.657E+00    0.264E-01
DAV:   2    -0.822636333771E+02    0.82692E-04   -0.20337E-02   158   0.684E-01    0.178E-01
DAV:   3    -0.822607592613E+02    0.28741E-02   -0.45069E-03   141   0.313E-01    0.502E-02
DAV:   4    -0.822619821069E+02   -0.12228E-02   -0.10754E-03   141   0.144E-01    0.235E-02
DAV:   5    -0.822627722509E+02   -0.79014E-03   -0.14835E-04   140   0.499E-02    0.973E-03
DAV:   6    -0.822629286237E+02   -0.15637E-03   -0.13992E-05   128   0.197E-02    0.521E-03
DAV:   7    -0.822631568263E+02   -0.22820E-03   -0.12434E-05   133   0.139E-02    0.249E-03
DAV:   8    -0.822632912162E+02   -0.13439E-03   -0.74032E-06   144   0.990E-03    0.126E-03
DAV:   9    -0.822633900315E+02   -0.98815E-04   -0.36999E-06   134   0.611E-03    0.685E-04
DAV:  10    -0.822634665253E+02   -0.76494E-04   -0.12707E-06   135   0.339E-03    0.497E-04
DAV:  11    -0.822635301313E+02   -0.63606E-04   -0.10730E-06   127   0.267E-03    0.311E-04
DAV:  12    -0.822635826071E+02   -0.52476E-04   -0.14175E-06   109   0.275E-03    0.211E-04
DAV:  13    -0.822635998210E+02   -0.17214E-04   -0.33599E-07   143   0.151E-03    0.147E-04
DAV:  14    -0.822636134709E+02   -0.13650E-04   -0.15095E-07   112   0.101E-03    0.996E-05
DAV:  15    -0.822636189753E+02   -0.55045E-05   -0.67182E-08   126   0.721E-04
  56 F= -.82619344E+02 E0= -.82601120E+02  d E =-.364476E-01  mag=     0.9669
       N       E                     dE             d eps       ncg     rms          rms(c)
DAV:   1    -0.822671474311E+02   -0.35340E-02   -0.41129E+00   134   0.953E+00    0.458E-01
DAV:   2    -0.822638997707E+02    0.32477E-02   -0.42088E-02   148   0.102E+00    0.283E-01
DAV:   3    -0.822625468301E+02    0.13529E-02   -0.13617E-02   141   0.533E-01    0.889E-02
DAV:   4    -0.822627342334E+02   -0.18740E-03   -0.27371E-03   150   0.240E-01    0.419E-02
DAV:   5    -0.822630210220E+02   -0.28679E-03   -0.34046E-04   142   0.818E-02    0.156E-02
DAV:   6    -0.822631410334E+02   -0.12001E-03   -0.28641E-05   135   0.291E-02    0.799E-03
DAV:   7    -0.822632777226E+02   -0.13669E-03   -0.14938E-05   118   0.184E-02    0.344E-03
DAV:   8    -0.822633453078E+02   -0.67585E-04   -0.43909E-06   134   0.916E-03    0.223E-03
DAV:   9    -0.822633906289E+02   -0.45321E-04   -0.23741E-06   100   0.580E-03    0.109E-03
DAV:  10    -0.822634192196E+02   -0.28591E-04   -0.19655E-06   118   0.456E-03    0.761E-04
DAV:  11    -0.822634296020E+02   -0.10382E-04   -0.79723E-07   127   0.298E-03    0.532E-04
DAV:  12    -0.822634289890E+02    0.61304E-06   -0.76025E-07   117   0.246E-03
  57 F= -.82619412E+02 E0= -.82601042E+02  d E =-.367402E-01  mag=     0.9811
       N       E                     dE             d eps       ncg     rms          rms(c)
DAV:   1    -0.822637993509E+02   -0.36975E-03   -0.20827E+00   134   0.677E+00    0.327E-01
DAV:   2    -0.822625848900E+02    0.12145E-02   -0.26290E-02   174   0.783E-01    0.210E-01
DAV:   3    -0.822597693027E+02    0.28156E-02   -0.75597E-03   141   0.398E-01    0.678E-02
DAV:   4    -0.822602853211E+02   -0.51602E-03   -0.16869E-03   159   0.186E-01    0.334E-02
DAV:   5    -0.822606315992E+02   -0.34628E-03   -0.21861E-04   141   0.657E-02    0.147E-02
DAV:   6    -0.822609044359E+02   -0.27284E-03   -0.32022E-05   159   0.292E-02    0.663E-03
DAV:   7    -0.822613400157E+02   -0.43558E-03   -0.42856E-05   151   0.247E-02    0.339E-03
DAV:   8    -0.822615319339E+02   -0.19192E-03   -0.12995E-05   168   0.129E-02    0.221E-03
DAV:   9    -0.822616656508E+02   -0.13372E-03   -0.38737E-06   127   0.703E-03    0.112E-03
DAV:  10    -0.822618115536E+02   -0.14590E-03   -0.32407E-06   127   0.564E-03    0.790E-04
DAV:  11    -0.822619250733E+02   -0.11352E-03   -0.24494E-06   118   0.434E-03    0.842E-04
DAV:  12    -0.822619685150E+02   -0.43442E-04   -0.12396E-06   151   0.292E-03    0.577E-04
DAV:  13    -0.822620058734E+02   -0.37358E-04   -0.56578E-07   118   0.213E-03    0.185E-04
DAV:  14    -0.822620245169E+02   -0.18643E-04   -0.22049E-07   149   0.135E-03    0.184E-04
DAV:  15    -0.822620352142E+02   -0.10697E-04   -0.10099E-07   136   0.833E-04    0.166E-04
DAV:  16    -0.822620394105E+02   -0.41963E-05   -0.44371E-08   127   0.609E-04
  58 F= -.82618033E+02 E0= -.82600777E+02  d E =-.345120E-01  mag=     0.9762
       N       E                     dE             d eps       ncg     rms          rms(c)
DAV:   1    -0.822647479304E+02   -0.27127E-02   -0.40503E+00   134   0.946E+00    0.414E-01
DAV:   2    -0.822639496861E+02    0.79824E-03   -0.45016E-02   158   0.100E+00    0.290E-01
DAV:   3    -0.822621157010E+02    0.18340E-02   -0.10318E-02   142   0.472E-01    0.838E-02
DAV:   4    -0.822627944359E+02   -0.67873E-03   -0.25495E-03   141   0.216E-01    0.434E-02
DAV:   5    -0.822631021615E+02   -0.30773E-03   -0.19473E-04   159   0.702E-02    0.144E-02
DAV:   6    -0.822632549782E+02   -0.15282E-03   -0.38458E-05   152   0.315E-02    0.763E-03
DAV:   7    -0.822633170666E+02   -0.62088E-04   -0.80049E-06   128   0.152E-02    0.366E-03
DAV:   8    -0.822633592644E+02   -0.42198E-04   -0.32498E-06   118   0.887E-03    0.167E-03
DAV:   9    -0.822633758316E+02   -0.16567E-04   -0.12023E-06   112   0.526E-03    0.107E-03
DAV:  10    -0.822633891786E+02   -0.13347E-04   -0.13045E-06   126   0.411E-03    0.714E-04
DAV:  11    -0.822633998912E+02   -0.10713E-04   -0.21491E-06   118   0.420E-03    0.533E-04
DAV:  12    -0.822634058930E+02   -0.60018E-05   -0.43671E-07   152   0.219E-03
  59 F= -.82619116E+02 E0= -.82600169E+02  d E =-.378944E-01  mag=     0.9754
       N       E                     dE             d eps       ncg     rms          rms(c)
DAV:   1    -0.822735020039E+02   -0.10102E-01   -0.19118E+00   134   0.635E+00    0.265E-01
DAV:   2    -0.822734323000E+02    0.69704E-04   -0.15780E-02   159   0.601E-01    0.175E-01
DAV:   3    -0.822719287588E+02    0.15035E-02   -0.35557E-03   141   0.281E-01    0.413E-02
DAV:   4    -0.822720008187E+02   -0.72060E-04   -0.77963E-04   166   0.122E-01    0.195E-02
DAV:   5    -0.822719225152E+02    0.78303E-04   -0.89911E-05   149   0.404E-02    0.993E-03
DAV:   6    -0.822723385808E+02   -0.41607E-03   -0.37401E-05   141   0.247E-02    0.483E-03
DAV:   7    -0.822727072441E+02   -0.36866E-03   -0.38782E-05   149   0.201E-02    0.213E-03
DAV:   8    -0.822728389289E+02   -0.13168E-03   -0.51713E-06   152   0.812E-03    0.112E-03
DAV:   9    -0.822729342603E+02   -0.95331E-04   -0.18322E-06   136   0.456E-03    0.753E-04
DAV:  10    -0.822730305505E+02   -0.96290E-04   -0.16291E-06   110   0.395E-03    0.553E-04
DAV:  11    -0.822731172291E+02   -0.86679E-04   -0.27677E-06   126   0.438E-03    0.350E-04
DAV:  12    -0.822731598515E+02   -0.42622E-04   -0.10093E-06   150   0.272E-03    0.235E-04
DAV:  13    -0.822731786735E+02   -0.18822E-04   -0.22318E-07   127   0.134E-03    0.154E-04
DAV:  14    -0.822731952307E+02   -0.16557E-04   -0.20957E-07   127   0.115E-03    0.113E-04
DAV:  15    -0.822731997699E+02   -0.45392E-05   -0.56159E-08   144   0.667E-04
  60 F= -.82629053E+02 E0= -.82610900E+02  d E =-.363060E-01  mag=     0.9758
       N       E                     dE             d eps       ncg     rms          rms(c)
DAV:   1    -0.822735221544E+02   -0.32692E-03   -0.35781E+00   132   0.844E+00    0.327E-01
DAV:   2    -0.822729560706E+02    0.56608E-03   -0.15610E-02   152   0.556E-01    0.197E-01
DAV:   3    -0.822725970836E+02    0.35899E-03   -0.26112E-03   134   0.234E-01    0.318E-02
DAV:   4    -0.822729353290E+02   -0.33825E-03   -0.50303E-04   143   0.886E-02    0.194E-02
DAV:   5    -0.822730412274E+02   -0.10590E-03   -0.45677E-05   143   0.311E-02    0.894E-03
DAV:   6    -0.822730736205E+02   -0.32393E-04   -0.83805E-06   136   0.147E-02    0.327E-03
DAV:   7    -0.822731041519E+02   -0.30531E-04   -0.23101E-06   110   0.783E-03    0.109E-03
DAV:   8    -0.822731160056E+02   -0.11854E-04   -0.61634E-07   128   0.379E-03    0.665E-04
DAV:   9    -0.822731204372E+02   -0.44316E-05   -0.30223E-07   120   0.239E-03
  61 F= -.82628981E+02 E0= -.82611270E+02  d E =-.354230E-01  mag=     0.9767
       N       E                     dE             d eps       ncg     rms          rms(c)
DAV:   1    -0.822620019564E+02    0.11114E-01   -0.18973E+00   132   0.635E+00    0.257E-01
DAV:   2    -0.822614790082E+02    0.52295E-03   -0.18495E-02   152   0.627E-01    0.179E-01
DAV:   3    -0.822613015411E+02    0.17747E-03   -0.31911E-03   141   0.262E-01    0.436E-02
DAV:   4    -0.822618178777E+02   -0.51634E-03   -0.62203E-04   134   0.106E-01    0.196E-02
DAV:   5    -0.822620207315E+02   -0.20285E-03   -0.68694E-05   156   0.356E-02    0.867E-03
DAV:   6    -0.822620953916E+02   -0.74660E-04   -0.73108E-06   128   0.142E-02    0.485E-03
DAV:   7    -0.822621481075E+02   -0.52716E-04   -0.55812E-06   120   0.107E-02    0.237E-03
DAV:   8    -0.822621567501E+02   -0.86427E-05   -0.13452E-06   128   0.589E-03
  62 F= -.82617831E+02 E0= -.82598661E+02  d E =-.383397E-01  mag=     0.9781
       N       E                     dE             d eps       ncg     rms          rms(c)
DAV:   1    -0.822631920343E+02   -0.10439E-02   -0.40161E+00   132   0.848E+00    0.413E-01
DAV:   2    -0.822628185585E+02    0.37348E-03   -0.38316E-02   152   0.894E-01    0.288E-01
DAV:   3    -0.822554162492E+02    0.74023E-02   -0.12243E-02   148   0.486E-01    0.713E-02
DAV:   4    -0.822576288830E+02   -0.22126E-02   -0.27420E-03   142   0.223E-01    0.364E-02
DAV:   5    -0.822582571018E+02   -0.62822E-03   -0.28543E-04   149   0.728E-02    0.157E-02
DAV:   6    -0.822593507731E+02   -0.10937E-02   -0.92677E-05   141   0.389E-02    0.810E-03
DAV:   7    -0.822604616581E+02   -0.11109E-02   -0.77945E-05   150   0.302E-02    0.385E-03
DAV:   8    -0.822609192289E+02   -0.45757E-03   -0.30581E-05   165   0.181E-02    0.221E-03
DAV:   9    -0.822612862813E+02   -0.36705E-03   -0.19250E-05   124   0.136E-02    0.162E-03
DAV:  10    -0.822616516788E+02   -0.36540E-03   -0.15368E-05   132   0.107E-02    0.114E-03
DAV:  11    -0.822618283855E+02   -0.17671E-03   -0.43653E-06   135   0.621E-03    0.819E-04
DAV:  12    -0.822619278339E+02   -0.99448E-04   -0.27793E-06   117   0.442E-03    0.460E-04
DAV:  13    -0.822619840100E+02   -0.56176E-04   -0.73850E-07   144   0.243E-03    0.328E-04
DAV:  14    -0.822620330719E+02   -0.49062E-04   -0.53491E-07   118   0.199E-03    0.231E-04
DAV:  15    -0.822620550295E+02   -0.21958E-04   -0.27456E-07   128   0.140E-03    0.201E-04
DAV:  16    -0.822620627466E+02   -0.77171E-05   -0.91779E-08   120   0.939E-04
  63 F= -.82618092E+02 E0= -.82601181E+02  d E =-.338223E-01  mag=     0.9734
       N       E                     dE             d eps       ncg     rms          rms(c)
DAV:   1    -0.822649806489E+02   -0.29256E-02   -0.20374E+00   132   0.637E+00    0.305E-01
DAV:   2    -0.822632965972E+02    0.16841E-02   -0.22935E-02   143   0.718E-01    0.204E-01
DAV:   3    -0.822629466534E+02    0.34994E-03   -0.62859E-03   141   0.367E-01    0.631E-02
DAV:   4    -0.822634739068E+02   -0.52725E-03   -0.13679E-03   142   0.165E-01    0.296E-02
DAV:   5    -0.822636943506E+02   -0.22044E-03   -0.16454E-04   156   0.563E-02    0.115E-02
DAV:   6    -0.822637838026E+02   -0.89452E-04   -0.15845E-05   135   0.211E-02    0.602E-03
DAV:   7    -0.822638467225E+02   -0.62920E-04   -0.79148E-06   119   0.138E-02    0.278E-03
DAV:   8    -0.822638697247E+02   -0.23002E-04   -0.21738E-06   128   0.752E-03    0.164E-03
DAV:   9    -0.822638852927E+02   -0.15568E-04   -0.12818E-06   100   0.492E-03    0.939E-04
DAV:  10    -0.822638984787E+02   -0.13186E-04   -0.14892E-06   109   0.430E-03    0.955E-04
DAV:  11    -0.822639015878E+02   -0.31090E-05   -0.72348E-07   134   0.301E-03
  64 F= -.82619756E+02 E0= -.82601458E+02  d E =-.365965E-01  mag=     0.9747
       N       E                     dE             d eps       ncg     rms          rms(c)
DAV:   1    -0.822673646538E+02   -0.34662E-02   -0.41635E+00   132   0.919E+00    0.452E-01
DAV:   2    -0.822654518740E+02    0.19128E-02   -0.54937E-02   182   0.109E+00    0.293E-01
DAV:   3    -0.822639323963E+02    0.15195E-02   -0.13532E-02   158   0.529E-01    0.961E-02
DAV:   4    -0.822640011836E+02   -0.68787E-04   -0.30229E-03   141   0.243E-01    0.483E-02
DAV:   5    -0.822641052191E+02   -0.10404E-03   -0.35271E-04   165   0.841E-02    0.186E-02
DAV:   6    -0.822641267067E+02   -0.21488E-04   -0.47633E-05   160   0.349E-02    0.875E-03
DAV:   7    -0.822641435444E+02   -0.16838E-04   -0.14817E-05   134   0.197E-02    0.420E-03
DAV:   8    -0.822641506687E+02   -0.71243E-05   -0.24351E-06   136   0.915E-03
  65 F= -.82620005E+02 E0= -.82601630E+02  d E =-.367513E-01  mag=     0.9754
       N       E                     dE             d eps       ncg     rms          rms(c)
DAV:   1    -0.822752706311E+02   -0.11127E-01   -0.19350E+00   134   0.631E+00    0.281E-01
DAV:   2    -0.822747297337E+02    0.54090E-03   -0.18428E-02   151   0.625E-01    0.179E-01
DAV:   3    -0.822736966446E+02    0.10331E-02   -0.48321E-03   158   0.318E-01    0.549E-02
DAV:   4    -0.822740095982E+02   -0.31295E-03   -0.10335E-03   142   0.143E-01    0.260E-02
DAV:   5    -0.822741905995E+02   -0.18100E-03   -0.17377E-04   158   0.533E-02    0.118E-02
DAV:   6    -0.822742183034E+02   -0.27704E-04   -0.18341E-05   136   0.230E-02    0.578E-03
DAV:   7    -0.822742771042E+02   -0.58801E-04   -0.12468E-05   135   0.157E-02    0.292E-03
DAV:   8    -0.822743074178E+02   -0.30314E-04   -0.18711E-06   144   0.721E-03    0.183E-03
DAV:   9    -0.822743309050E+02   -0.23487E-04   -0.69330E-07   126   0.381E-03    0.824E-04
DAV:  10    -0.822743594456E+02   -0.28541E-04   -0.71649E-07   127   0.317E-03    0.380E-04
DAV:  11    -0.822743878489E+02   -0.28403E-04   -0.57590E-07   118   0.234E-03    0.390E-04
DAV:  12    -0.822744089076E+02   -0.21059E-04   -0.59628E-07   135   0.183E-03    0.318E-04
DAV:  13    -0.822744212733E+02   -0.12366E-04   -0.15246E-07   126   0.105E-03    0.174E-04
DAV:  14    -0.822744347748E+02   -0.13501E-04   -0.17816E-07   109   0.978E-04    0.111E-04
DAV:  15    -0.822744383592E+02   -0.35844E-05   -0.39279E-08   136   0.618E-04
  66 F= -.82630294E+02 E0= -.82612506E+02  d E =-.355762E-01  mag=     0.9767
       N       E                     dE             d eps       ncg     rms          rms(c)
DAV:   1    -0.822723786511E+02    0.20561E-02   -0.35799E+00   134   0.777E+00    0.329E-01
DAV:   2    -0.822720343061E+02    0.34434E-03   -0.15784E-02   152   0.532E-01    0.198E-01
DAV:   3    -0.822714430941E+02    0.59121E-03   -0.24645E-03   143   0.219E-01    0.337E-02
DAV:   4    -0.822717016252E+02   -0.25853E-03   -0.39810E-04   142   0.825E-02    0.191E-02
DAV:   5    -0.822716980883E+02    0.35369E-05   -0.38046E-05   151   0.284E-02
  67 F= -.82627557E+02 E0= -.82609430E+02  d E =-.362537E-01  mag=     0.9764
       N       E                     dE             d eps       ncg     rms          rms(c)
DAV:   1    -0.822633800799E+02    0.83215E-02   -0.19156E+00   132   0.647E+00    0.266E-01
DAV:   2    -0.822634672915E+02   -0.87212E-04   -0.20565E-02   150   0.672E-01    0.179E-01
DAV:   3    -0.822621166710E+02    0.13506E-02   -0.45060E-03   158   0.310E-01    0.550E-02
DAV:   4    -0.822625124531E+02   -0.39578E-03   -0.93906E-04   141   0.135E-01    0.246E-02
DAV:   5    -0.822629771252E+02   -0.46467E-03   -0.16532E-04   172   0.518E-02    0.102E-02
DAV:   6    -0.822630566270E+02   -0.79502E-04   -0.15039E-05   119   0.203E-02    0.533E-03
DAV:   7    -0.822631691284E+02   -0.11250E-03   -0.64215E-06   124   0.120E-02    0.210E-03
DAV:   8    -0.822632399641E+02   -0.70836E-04   -0.18305E-06   127   0.657E-03    0.111E-03
DAV:   9    -0.822632798233E+02   -0.39859E-04   -0.63070E-07   133   0.330E-03    0.611E-04
DAV:  10    -0.822633238363E+02   -0.44013E-04   -0.77446E-07   117   0.285E-03    0.360E-04
DAV:  11    -0.822633562490E+02   -0.32413E-04   -0.64363E-07   126   0.211E-03    0.242E-04
DAV:  12    -0.822633723798E+02   -0.16131E-04   -0.24287E-07   117   0.134E-03    0.139E-04
DAV:  13    -0.822633809630E+02   -0.85832E-05   -0.11729E-07   111   0.945E-04
  68 F= -.82619107E+02 E0= -.82600880E+02  d E =-.364542E-01  mag=     0.9663
       N       E                     dE             d eps       ncg     rms          rms(c)
DAV:   1    -0.822673749302E+02   -0.40026E-02   -0.41085E+00   134   0.952E+00    0.458E-01
DAV:   2    -0.822639153736E+02    0.34596E-02   -0.42338E-02   148   0.102E+00    0.284E-01
DAV:   3    -0.822625244646E+02    0.13909E-02   -0.13846E-02   141   0.538E-01    0.898E-02
DAV:   4    -0.822628122720E+02   -0.28781E-03   -0.27344E-03   150   0.241E-01    0.425E-02
DAV:   5    -0.822631507762E+02   -0.33850E-03   -0.36346E-04   150   0.838E-02    0.162E-02
DAV:   6    -0.822632895774E+02   -0.13880E-03   -0.30703E-05   127   0.306E-02    0.815E-03
DAV:   7    -0.822634528432E+02   -0.16327E-03   -0.17097E-05   110   0.196E-02    0.357E-03
DAV:   8    -0.822635319438E+02   -0.79101E-04   -0.50322E-06   134   0.983E-03    0.236E-03
DAV:   9    -0.822635843823E+02   -0.52439E-04   -0.27078E-06   100   0.623E-03    0.115E-03
DAV:  10    -0.822636197468E+02   -0.35364E-04   -0.24096E-06   109   0.499E-03    0.849E-04
DAV:  11    -0.822636318423E+02   -0.12095E-04   -0.90578E-07   126   0.327E-03    0.585E-04
DAV:  12    -0.822636306071E+02    0.12353E-05   -0.84579E-07   117   0.271E-03
  69 F= -.82619612E+02 E0= -.82601226E+02  d E =-.367721E-01  mag=     0.9813
       N       E                     dE             d eps       ncg     rms          rms(c)
DAV:   1    -0.822643306950E+02   -0.69885E-03   -0.20155E+00   134   0.657E+00    0.292E-01
DAV:   2    -0.822640491626E+02    0.28153E-03   -0.19426E-02   175   0.659E-01    0.204E-01
DAV:   3    -0.822624666340E+02    0.15825E-02   -0.61846E-03   149   0.354E-01    0.645E-02
DAV:   4    -0.822630915004E+02   -0.62487E-03   -0.14104E-03   141   0.163E-01    0.275E-02
DAV:   5    -0.822634503128E+02   -0.35881E-03   -0.15990E-04   148   0.540E-02    0.931E-03
DAV:   6    -0.822635132567E+02   -0.62944E-04   -0.12336E-05   127   0.192E-02    0.516E-03
DAV:   7    -0.822635444845E+02   -0.31228E-04   -0.69100E-06   119   0.133E-02    0.263E-03
DAV:   8    -0.822635611157E+02   -0.16631E-04   -0.13441E-06   120   0.636E-03    0.145E-03
DAV:   9    -0.822635759541E+02   -0.14838E-04   -0.79314E-07   124   0.423E-03    0.761E-04
DAV:  10    -0.822635874396E+02   -0.11485E-04   -0.43467E-07   135   0.270E-03    0.531E-04
DAV:  11    -0.822635972281E+02   -0.97886E-05   -0.27101E-07   127   0.181E-03
  70 F= -.82619307E+02 E0= -.82600333E+02  d E =-.379483E-01  mag=     0.9760
       N       E                     dE             d eps       ncg     rms          rms(c)
DAV:   1    -0.822633935447E+02    0.19389E-03   -0.40627E+00   133   0.931E+00    0.421E-01
DAV:   2    -0.822629295031E+02    0.46404E-03   -0.43361E-02   159   0.101E+00    0.287E-01
DAV:   3    -0.822599077514E+02    0.30218E-02   -0.10638E-02   140   0.489E-01    0.758E-02
DAV:   4    -0.822593893553E+02    0.51840E-03   -0.26150E-03   173   0.226E-01    0.416E-02
DAV:   5    -0.822590263626E+02    0.36299E-03   -0.26521E-04   143   0.771E-02    0.168E-02
DAV:   6    -0.822600220431E+02   -0.99568E-03   -0.10992E-04   150   0.450E-02    0.810E-03
DAV:   7    -0.822608075348E+02   -0.78549E-03   -0.65832E-05   165   0.296E-02    0.393E-03
DAV:   8    -0.822611434233E+02   -0.33589E-03   -0.23794E-05   143   0.169E-02    0.222E-03
DAV:   9    -0.822613460833E+02   -0.20266E-03   -0.65999E-06   150   0.943E-03    0.133E-03
DAV:  10    -0.822615264968E+02   -0.18041E-03   -0.50086E-06   110   0.717E-03    0.101E-03
DAV:  11    -0.822616943766E+02   -0.16788E-03   -0.50492E-06   127   0.651E-03    0.693E-04
DAV:  12    -0.822617799650E+02   -0.85588E-04   -0.25675E-06   151   0.444E-03    0.425E-04
DAV:  13    -0.822618178433E+02   -0.37878E-04   -0.56497E-07   135   0.220E-03    0.266E-04
DAV:  14    -0.822618469049E+02   -0.29062E-04   -0.46375E-07   116   0.173E-03    0.205E-04
DAV:  15    -0.822618554090E+02   -0.85041E-05   -0.13573E-07   144   0.109E-03
  71 F= -.82617850E+02 E0= -.82600628E+02  d E =-.344436E-01  mag=     0.9756
       N       E                     dE             d eps       ncg     rms          rms(c)
DAV:   1    -0.822736279371E+02   -0.11781E-01   -0.19091E+00   134   0.651E+00    0.264E-01
DAV:   2    -0.822734908713E+02    0.13707E-03   -0.16429E-02   160   0.597E-01    0.177E-01
DAV:   3    -0.822726806675E+02    0.81020E-03   -0.35373E-03   141   0.276E-01    0.484E-02
DAV:   4    -0.822730082519E+02   -0.32758E-03   -0.83417E-04   142   0.123E-01    0.214E-02
DAV:   5    -0.822732079795E+02   -0.19973E-03   -0.71341E-05   151   0.367E-02    0.878E-03
DAV:   6    -0.822732625477E+02   -0.54568E-04   -0.10083E-05   128   0.170E-02    0.432E-03
DAV:   7    -0.822732779707E+02   -0.15423E-04   -0.38296E-06   120   0.980E-03    0.194E-03
DAV:   8    -0.822732895937E+02   -0.11623E-04   -0.81869E-07   120   0.488E-03    0.980E-04
DAV:   9    -0.822732971503E+02   -0.75566E-05   -0.50956E-07   116   0.328E-03
  72 F= -.82629151E+02 E0= -.82610966E+02  d E =-.363699E-01  mag=     0.9756
       N       E                     dE             d eps       ncg     rms          rms(c)
DAV:   1    -0.822734231944E+02   -0.13360E-03   -0.35803E+00   134   0.841E+00    0.327E-01
DAV:   2    -0.822728444356E+02    0.57876E-03   -0.15549E-02   144   0.557E-01    0.197E-01
DAV:   3    -0.822725033867E+02    0.34105E-03   -0.26653E-03   136   0.235E-01    0.325E-02
DAV:   4    -0.822728589514E+02   -0.35556E-03   -0.53389E-04   150   0.908E-02    0.196E-02
DAV:   5    -0.822729509894E+02   -0.92038E-04   -0.47649E-05   142   0.317E-02    0.909E-03
DAV:   6    -0.822729821815E+02   -0.31192E-04   -0.84753E-06   136   0.152E-02    0.341E-03
DAV:   7    -0.822730105652E+02   -0.28384E-04   -0.26114E-06   119   0.841E-03    0.113E-03
DAV:   8    -0.822730182202E+02   -0.76550E-05   -0.59237E-07   128   0.400E-03
  73 F= -.82628879E+02 E0= -.82611189E+02  d E =-.353797E-01  mag=     0.9767
       N       E                     dE             d eps       ncg     rms          rms(c)
DAV:   1    -0.822585841783E+02    0.14426E-01   -0.19315E+00   132   0.664E+00    0.272E-01
DAV:   2    -0.822581945123E+02    0.38967E-03   -0.21256E-02   160   0.718E-01    0.186E-01
DAV:   3    -0.822578371733E+02    0.35734E-03   -0.50413E-03   144   0.350E-01    0.559E-02
DAV:   4    -0.822579784211E+02   -0.14125E-03   -0.11614E-03   143   0.160E-01    0.273E-02
DAV:   5    -0.822581231006E+02   -0.14468E-03   -0.18478E-04   158   0.586E-02    0.105E-02
DAV:   6    -0.822581572789E+02   -0.34178E-04   -0.13132E-05   118   0.201E-02    0.581E-03
DAV:   7    -0.822581883663E+02   -0.31087E-04   -0.73578E-06   110   0.140E-02    0.290E-03
DAV:   8    -0.822582018677E+02   -0.13501E-04   -0.16085E-06   120   0.682E-03    0.178E-03
DAV:   9    -0.822582086534E+02   -0.67858E-05   -0.78763E-07   118   0.437E-03
  74 F= -.82614052E+02 E0= -.82596044E+02  d E =-.360152E-01  mag=     0.9815
       N       E                     dE             d eps       ncg     rms          rms(c)
DAV:   1    -0.822721841940E+02   -0.13982E-01   -0.41230E+00   132   0.973E+00    0.460E-01
DAV:   2    -0.822693743563E+02    0.28098E-02   -0.46523E-02   167   0.108E+00    0.294E-01
DAV:   3    -0.822615286677E+02    0.78457E-02   -0.13357E-02   149   0.545E-01    0.962E-02
DAV:   4    -0.822649330087E+02   -0.34043E-02   -0.36038E-03   142   0.268E-01    0.455E-02
DAV:   5    -0.822669588242E+02   -0.20258E-02   -0.45837E-04   156   0.929E-02    0.154E-02
DAV:   6    -0.822672646294E+02   -0.30581E-03   -0.42108E-05   152   0.352E-02    0.834E-03
DAV:   7    -0.822675730030E+02   -0.30837E-03   -0.13424E-05   119   0.186E-02    0.416E-03
DAV:   8    -0.822678378555E+02   -0.26485E-03   -0.15675E-05   136   0.144E-02    0.235E-03
DAV:   9    -0.822680823902E+02   -0.24453E-03   -0.12437E-05   165   0.116E-02    0.117E-03
DAV:  10    -0.822681986507E+02   -0.11626E-03   -0.13502E-06   128   0.419E-03    0.790E-04
DAV:  11    -0.822683706031E+02   -0.17195E-03   -0.39043E-06   143   0.504E-03    0.493E-04
DAV:  12    -0.822684337902E+02   -0.63187E-04   -0.15251E-06   119   0.310E-03    0.403E-04
DAV:  13    -0.822684721602E+02   -0.38370E-04   -0.83408E-07   143   0.249E-03    0.224E-04
DAV:  14    -0.822684915977E+02   -0.19438E-04   -0.33343E-07   118   0.149E-03    0.182E-04
DAV:  15    -0.822684970509E+02   -0.54532E-05   -0.93112E-08   135   0.856E-04
  75 F= -.82624360E+02 E0= -.82605739E+02  d E =-.372425E-01  mag=     0.9652
       N       E                     dE             d eps       ncg     rms          rms(c)
DAV:   1    -0.822647784019E+02    0.37132E-02   -0.20562E+00   134   0.694E+00    0.320E-01
DAV:   2    -0.822628648563E+02    0.19135E-02   -0.24252E-02   142   0.774E-01    0.205E-01
DAV:   3    -0.822620907452E+02    0.77411E-03   -0.66041E-03   133   0.396E-01    0.613E-02
DAV:   4    -0.822624914626E+02   -0.40072E-03   -0.14084E-03   142   0.173E-01    0.293E-02
DAV:   5    -0.822627844739E+02   -0.29301E-03   -0.18553E-04   150   0.603E-02    0.114E-02
DAV:   6    -0.822629043521E+02   -0.11988E-03   -0.16861E-05   120   0.226E-02    0.611E-03
DAV:   7    -0.822630372893E+02   -0.13294E-03   -0.11210E-05   110   0.155E-02    0.280E-03
DAV:   8    -0.822631047581E+02   -0.67469E-04   -0.47117E-06   118   0.872E-03    0.182E-03
DAV:   9    -0.822631385473E+02   -0.33789E-04   -0.16176E-06   120   0.505E-03    0.104E-03
DAV:  10    -0.822631683928E+02   -0.29846E-04   -0.20387E-06   100   0.483E-03    0.881E-04
DAV:  11    -0.822631683385E+02    0.54350E-07   -0.12503E-06   134   0.345E-03
  76 F= -.82618852E+02 E0= -.82599541E+02  d E =-.386214E-01  mag=     0.9765
       N       E                     dE             d eps       ncg     rms          rms(c)
DAV:   1    -0.822644304431E+02   -0.12621E-02   -0.40389E+00   134   0.938E+00    0.431E-01
DAV:   2    -0.822635250633E+02    0.90538E-03   -0.39787E-02   159   0.975E-01    0.286E-01
DAV:   3    -0.822597252886E+02    0.37998E-02   -0.11632E-02   149   0.523E-01    0.726E-02
DAV:   4    -0.822601850618E+02   -0.45977E-03   -0.25528E-03   176   0.228E-01    0.337E-02
DAV:   5    -0.822600238990E+02    0.16116E-03   -0.25256E-04   151   0.705E-02    0.156E-02
DAV:   6    -0.822606956372E+02   -0.67174E-03   -0.76173E-05   148   0.373E-02    0.776E-03
DAV:   7    -0.822614097268E+02   -0.71409E-03   -0.59245E-05   158   0.276E-02    0.349E-03
DAV:   8    -0.822617776892E+02   -0.36796E-03   -0.29540E-05   168   0.175E-02    0.182E-03
DAV:   9    -0.822619857987E+02   -0.20811E-03   -0.72836E-06   134   0.909E-03    0.125E-03
DAV:  10    -0.822622031745E+02   -0.21738E-03   -0.68170E-06   120   0.737E-03    0.895E-04
DAV:  11    -0.822623439222E+02   -0.14075E-03   -0.40784E-06   126   0.564E-03    0.591E-04
DAV:  12    -0.822624231845E+02   -0.79262E-04   -0.23146E-06   127   0.414E-03    0.360E-04
DAV:  13    -0.822624717220E+02   -0.48538E-04   -0.67991E-07   134   0.225E-03    0.229E-04
DAV:  14    -0.822624950748E+02   -0.23353E-04   -0.27198E-07   119   0.149E-03    0.156E-04
DAV:  15    -0.822625097367E+02   -0.14662E-04   -0.19698E-07   127   0.120E-03    0.109E-04
DAV:  16    -0.822625150079E+02   -0.52712E-05   -0.78732E-08   128   0.840E-04
  77 F= -.82618534E+02 E0= -.82601594E+02  d E =-.338799E-01  mag=     0.9754
       N       E                     dE             d eps       ncg     rms          rms(c)
DAV:   1    -0.822734802409E+02   -0.10971E-01   -0.19060E+00   132   0.657E+00    0.267E-01
DAV:   2    -0.822730019287E+02    0.47831E-03   -0.15487E-02   152   0.588E-01    0.173E-01
DAV:   3    -0.822720398047E+02    0.96212E-03   -0.35242E-03   140   0.285E-01    0.466E-02
DAV:   4    -0.822726155075E+02   -0.57570E-03   -0.77631E-04   149   0.124E-01    0.204E-02
DAV:   5    -0.822729276447E+02   -0.31214E-03   -0.87507E-05   151   0.396E-02    0.851E-03
DAV:   6    -0.822729865000E+02   -0.58855E-04   -0.83946E-06   120   0.155E-02    0.457E-03
DAV:   7    -0.822730147357E+02   -0.28236E-04   -0.40655E-06   136   0.986E-03    0.181E-03
DAV:   8    -0.822730242151E+02   -0.94794E-05   -0.81531E-07   120   0.457E-03
  78 F= -.82628878E+02 E0= -.82610637E+02  d E =-.364835E-01  mag=     0.9755
       N       E                     dE             d eps       ncg     rms          rms(c)
DAV:   1    -0.822738005064E+02   -0.78577E-03   -0.35936E+00   132   0.855E+00    0.321E-01
DAV:   2    -0.822731740717E+02    0.62643E-03   -0.17158E-02   144   0.563E-01    0.192E-01
DAV:   3    -0.822721649405E+02    0.10091E-02   -0.29339E-03   142   0.241E-01    0.346E-02
DAV:   4    -0.822730817487E+02   -0.91681E-03   -0.56675E-04   159   0.984E-02    0.202E-02
DAV:   5    -0.822734810510E+02   -0.39930E-03   -0.81477E-05   136   0.374E-02    0.100E-02
DAV:   6    -0.822736133315E+02   -0.13228E-03   -0.25157E-05   151   0.205E-02    0.416E-03
DAV:   7    -0.822736937745E+02   -0.80443E-04   -0.41390E-06   127   0.961E-03    0.160E-03
DAV:   8    -0.822737297347E+02   -0.35960E-04   -0.96343E-07   110   0.451E-03    0.102E-03
DAV:   9    -0.822737445284E+02   -0.14794E-04   -0.66439E-07   136   0.313E-03    0.667E-04
DAV:  10    -0.822737672308E+02   -0.22702E-04   -0.11171E-06   112   0.315E-03    0.556E-04
DAV:  11    -0.822737829536E+02   -0.15723E-04   -0.63183E-07   136   0.233E-03    0.348E-04
DAV:  12    -0.822737983429E+02   -0.15389E-04   -0.77703E-07   109   0.235E-03    0.318E-04
DAV:  13    -0.822738017408E+02   -0.33979E-05   -0.17475E-07   144   0.130E-03
  79 F= -.82629662E+02 E0= -.82612132E+02  d E =-.350591E-01  mag=     0.9772
