<?xml version="1.0" encoding="ISO-8859-1"?>
<modeling>
 <generator>
  <i name="program" type="string">vasp </i>
  <i name="version" type="string">5.4.4.18Apr17-6-g9f103f2a35  </i>
  <i name="subversion" type="string">(build Jul 11 2022 10:00:19) complex            parallel </i>
  <i name="platform" type="string">LinuxGNU </i>
  <i name="date" type="string">2024 06 05 </i>
  <i name="time" type="string">17:49:37 </i>
 </generator>
 <incar>
  <i type="string" name="SYSTEM"> vibration</i>
  <i type="int" name="ISTART">     1</i>
  <i type="string" name="PREC">normal</i>
  <i type="string" name="ALGO"> Normal</i>
  <i type="int" name="ISPIN">     2</i>
  <i type="int" name="IBRION">     5</i>
  <i type="int" name="NFREE">     2</i>
  <i name="EDIFF">      0.00001000</i>
  <i name="EDIFFG">     -0.01000000</i>
  <i type="int" name="NSW">     1</i>
  <i type="int" name="ISYM">     0</i>
  <i name="ENCUT">    400.00000000</i>
  <i name="POTIM">      0.02000000</i>
  <i type="string" name="LREAL"> Auto</i>
  <i type="int" name="ISMEAR">     0</i>
  <i name="SIGMA">      0.20000000</i>
  <i type="int" name="NWRITE">     3</i>
  <v type="int" name="KPOINT_BSE">    -1     0     0     0</v>
  <i type="string" name="GGA"> PE</i>
 </incar>
 <structure name="primitive_cell" >
  <crystal>
   <varray name="basis" >
    <v>      15.00000000       0.00000000       0.00000000 </v>
    <v>       0.00000000      15.00000000       0.00000000 </v>
    <v>       0.00000000       0.00000000      15.00000000 </v>
   </varray>
   <i name="volume">   3375.00000000 </i>
   <varray name="rec_basis" >
    <v>       0.06666667       0.00000000       0.00000000 </v>
    <v>       0.00000000       0.06666667       0.00000000 </v>
    <v>       0.00000000       0.00000000       0.06666667 </v>
   </varray>
  </crystal>
  <varray name="positions" >
   <v>       0.43345454       0.35648954       0.49586537 </v>
   <v>       0.47089311       0.41894144       0.49638009 </v>
   <v>       0.42484707       0.49999523       0.49657148 </v>
   <v>      -0.43600088       0.41932651       0.49657387 </v>
   <v>      -0.39974016       0.35617101       0.49723369 </v>
   <v>       0.33206666      -0.49993336       0.49166667 </v>
   <v>       0.31515852       0.49599907       0.42929441 </v>
   <v>       0.30680543       0.49884698      -0.44854438 </v>
   <v>       0.47087827      -0.41898143       0.49624935 </v>
   <v>      -0.38942522       0.49997970       0.49634337 </v>
   <v>      -0.43600792      -0.41935223       0.49645263 </v>
   <v>       0.43343273      -0.35652131       0.49576813 </v>
   <v>      -0.31670660       0.49998587       0.49664205 </v>
   <v>      -0.39974356      -0.35620147       0.49710613 </v>
  </varray>
 </structure>
 <varray name="primitive_index" >
  <v type="int" >        1 </v>
  <v type="int" >        9 </v>
  <v type="int" >        8 </v>
  <v type="int" >       10 </v>
  <v type="int" >        2 </v>
  <v type="int" >       14 </v>
  <v type="int" >        7 </v>
  <v type="int" >        6 </v>
  <v type="int" >       13 </v>
  <v type="int" >       11 </v>
  <v type="int" >       12 </v>
  <v type="int" >        5 </v>
  <v type="int" >        3 </v>
  <v type="int" >        4 </v>
 </varray>
 <kpoints>
  <generation param="Monkhorst-Pack">
   <v type="int" name="divisions">       1        1        1 </v>
   <v name="usershift">      0.00000000       0.00000000       0.00000000 </v>
   <v name="genvec1">      1.00000000       0.00000000       0.00000000 </v>
   <v name="genvec2">      0.00000000       1.00000000       0.00000000 </v>
   <v name="genvec3">      0.00000000       0.00000000       1.00000000 </v>
   <v name="shift">      0.00000000       0.00000000       0.00000000 </v>
  </generation>
  <varray name="kpointlist" >
   <v>       0.00000000       0.00000000       0.00000000 </v>
  </varray>
  <varray name="weights" >
   <v>       1.00000000 </v>
  </varray>
 </kpoints>
 <parameters>
  <separator name="general" >
   <i type="string" name="SYSTEM">vibration</i>
   <i type="logical" name="LCOMPAT"> F  </i>
  </separator>
  <separator name="electronic" >
   <i type="string" name="PREC">normal</i>
   <i name="ENMAX">    400.00000000</i>
   <i name="ENAUG">    644.87300000</i>
   <i name="EDIFF">      0.00001000</i>
   <i type="int" name="IALGO">    38</i>
   <i type="int" name="IWAVPR">    11</i>
   <i type="int" name="NBANDS">    33</i>
   <i name="NELECT">     37.00000000</i>
   <i type="int" name="TURBO">     0</i>
   <i type="int" name="IRESTART">     0</i>
   <i type="int" name="NREBOOT">     0</i>
   <i type="int" name="NMIN">     0</i>
   <i name="EREF">      0.00000000</i>
   <separator name="electronic smearing" >
    <i type="int" name="ISMEAR">     0</i>
    <i name="SIGMA">      0.20000000</i>
    <i name="KSPACING">      0.50000000</i>
    <i type="logical" name="KGAMMA"> T  </i>
   </separator>
   <separator name="electronic projectors" >
    <i type="logical" name="LREAL"> T  </i>
    <v name="ROPT">     -0.00050000     -0.00050000     -0.00050000</v>
    <i type="int" name="LMAXPAW">  -100</i>
    <i type="int" name="LMAXMIX">     2</i>
    <i type="logical" name="NLSPLINE"> F  </i>
   </separator>
   <separator name="electronic startup" >
    <i type="int" name="ISTART">     1</i>
    <i type="int" name="ICHARG">     0</i>
    <i type="int" name="INIWAV">     1</i>
   </separator>
   <separator name="electronic spin" >
    <i type="int" name="ISPIN">     2</i>
    <i type="logical" name="LNONCOLLINEAR"> F  </i>
    <v name="MAGMOM">      1.00000000      1.00000000      1.00000000      1.00000000      1.00000000      1.00000000      1.00000000      1.00000000      1.00000000      1.00000000      1.00000000      1.00000000      1.00000000      1.00000000</v>
    <i name="NUPDOWN">     -1.00000000</i>
    <i type="logical" name="LSORBIT"> F  </i>
    <v name="SAXIS">      0.00000000      0.00000000      1.00000000</v>
    <i type="logical" name="LSPIRAL"> F  </i>
    <v name="QSPIRAL">      0.00000000      0.00000000      0.00000000</v>
    <i type="logical" name="LZEROZ"> F  </i>
   </separator>
   <separator name="electronic exchange-correlation" >
    <i type="logical" name="LASPH"> F  </i>
    <i type="logical" name="LMETAGGA"> F  </i>
   </separator>
   <separator name="electronic convergence" >
    <i type="int" name="NELM">    60</i>
    <i type="int" name="NELMDL">     0</i>
    <i type="int" name="NELMIN">     2</i>
    <i name="ENINI">    400.00000000</i>
    <separator name="electronic convergence detail" >
     <i type="logical" name="LDIAG"> T  </i>
     <i type="logical" name="LSUBROT"> F  </i>
     <i name="WEIMIN">      0.00100000</i>
     <i name="EBREAK">      0.00000008</i>
     <i name="DEPER">      0.30000000</i>
     <i type="int" name="NRMM">     4</i>
     <i name="TIME">      0.40000000</i>
    </separator>
   </separator>
   <separator name="electronic mixer" >
    <i name="AMIX">      0.40000000</i>
    <i name="BMIX">      1.00000000</i>
    <i name="AMIN">      0.10000000</i>
    <i name="AMIX_MAG">      1.60000000</i>
    <i name="BMIX_MAG">      1.00000000</i>
    <separator name="electronic mixer details" >
     <i type="int" name="IMIX">     4</i>
     <i type="logical" name="MIXFIRST"> F  </i>
     <i type="int" name="MAXMIX">   -45</i>
     <i name="WC">    100.00000000</i>
     <i type="int" name="INIMIX">     1</i>
     <i type="int" name="MIXPRE">     1</i>
     <i type="int" name="MREMOVE">     5</i>
    </separator>
   </separator>
   <separator name="electronic dipolcorrection" >
    <i type="logical" name="LDIPOL"> F  </i>
    <i type="logical" name="LMONO"> F  </i>
    <i type="int" name="IDIPOL">     0</i>
    <i name="EPSILON">      1.00000000</i>
    <v name="DIPOL">   -100.00000000   -100.00000000   -100.00000000</v>
    <i name="EFIELD">      0.00000000</i>
   </separator>
  </separator>
  <separator name="grids" >
   <i type="int" name="NGX">    80</i>
   <i type="int" name="NGY">    80</i>
   <i type="int" name="NGZ">    80</i>
   <i type="int" name="NGXF">   160</i>
   <i type="int" name="NGYF">   160</i>
   <i type="int" name="NGZF">   160</i>
   <i type="logical" name="ADDGRID"> F  </i>
  </separator>
  <separator name="ionic" >
   <i type="int" name="NSW">   205</i>
   <i type="int" name="IBRION">     5</i>
   <i type="int" name="MDALGO">     0</i>
   <i type="int" name="ISIF">     2</i>
   <i name="PSTRESS">      0.00000000</i>
   <i name="EDIFFG">     -0.01000000</i>
   <i type="int" name="NFREE">     2</i>
   <i name="POTIM">      0.02000000</i>
   <i name="SMASS">     -3.00000000</i>
   <i name="SCALEE">      1.00000000</i>
  </separator>
  <separator name="ionic md" >
   <i name="TEBEG">      0.00010000</i>
   <i name="TEEND">      0.00010000</i>
   <i type="int" name="NBLOCK">     1</i>
   <i type="int" name="KBLOCK">   205</i>
   <i type="int" name="NPACO">   256</i>
   <i name="APACO">     16.00000000</i>
  </separator>
  <separator name="symmetry" >
   <i type="int" name="ISYM">     0</i>
   <i name="SYMPREC">      0.00001000</i>
  </separator>
  <separator name="dos" >
   <i type="int" name="LORBIT">     0</i>
   <v name="RWIGS">     -1.00000000     -1.00000000     -1.00000000</v>
   <i type="int" name="NEDOS">   301</i>
   <i name="EMIN">     10.00000000</i>
   <i name="EMAX">    -10.00000000</i>
   <i name="EFERMI">      0.00000000</i>
  </separator>
  <separator name="writing" >
   <i type="int" name="NWRITE">     3</i>
   <i type="logical" name="LWAVE"> T  </i>
   <i type="logical" name="LDOWNSAMPLE"> F  </i>
   <i type="logical" name="LCHARG"> T  </i>
   <i type="logical" name="LPARD"> F  </i>
   <i type="logical" name="LVTOT"> F  </i>
   <i type="logical" name="LVHAR"> F  </i>
   <i type="logical" name="LELF"> F  </i>
   <i type="logical" name="LOPTICS"> F  </i>
   <v name="STM">      0.00000000      0.00000000      0.00000000      0.00000000      0.00000000      0.00000000      0.00000000</v>
  </separator>
  <separator name="performance" >
   <i type="int" name="NPAR">     1</i>
   <i type="int" name="NSIM">     4</i>
   <i type="int" name="NBLK">    -1</i>
   <i type="logical" name="LPLANE"> T  </i>
   <i type="logical" name="LSCALAPACK"> T  </i>
   <i type="logical" name="LSCAAWARE"> F  </i>
   <i type="logical" name="LSCALU"> F  </i>
   <i type="logical" name="LASYNC"> F  </i>
   <i type="logical" name="LORBITALREAL"> F  </i>
  </separator>
  <separator name="miscellaneous" >
   <i type="int" name="IDIOT">     3</i>
   <i type="int" name="ISPECIAL">     0</i>
   <i type="logical" name="LMUSIC"> F  </i>
   <v name="POMASS">      1.00000000     12.01100000     16.00000000</v>
   <v name="DARWINR">      0.00000000      0.00000000      0.00000000</v>
   <v name="DARWINV">      1.00000000      1.00000000      1.00000000</v>
   <i type="logical" name="LCORR"> T  </i>
  </separator>
  <i type="logical" name="GGA_COMPAT"> T  </i>
  <i type="logical" name="LBERRY"> F  </i>
  <i type="int" name="ICORELEVEL">     0</i>
  <i type="logical" name="LDAU"> F  </i>
  <i type="int" name="I_CONSTRAINED_M">     0</i>
  <separator name="electronic exchange-correlation" >
   <i type="string" name="GGA">PE</i>
   <i type="int" name="VOSKOWN">     0</i>
   <i type="logical" name="LHFCALC"> F  </i>
   <i type="string" name="PRECFOCK"></i>
   <i type="logical" name="LSYMGRAD"> F  </i>
   <i type="logical" name="LHFONE"> F  </i>
   <i type="logical" name="LRHFCALC"> F  </i>
   <i type="logical" name="LTHOMAS"> F  </i>
   <i type="logical" name="LMODELHF"> F  </i>
   <i name="ENCUT4O">     -1.00000000</i>
   <i type="int" name="EXXOEP">     0</i>
   <i type="int" name="FOURORBIT">     0</i>
   <i name="AEXX">      0.00000000</i>
   <i name="HFALPHA">      0.00000000</i>
   <i name="MCALPHA">      0.00000000</i>
   <i name="ALDAX">      1.00000000</i>
   <i name="AGGAX">      1.00000000</i>
   <i name="ALDAC">      1.00000000</i>
   <i name="AGGAC">      1.00000000</i>
   <i type="int" name="NKREDX">     1</i>
   <i type="int" name="NKREDY">     1</i>
   <i type="int" name="NKREDZ">     1</i>
   <i type="logical" name="SHIFTRED"> F  </i>
   <i type="logical" name="ODDONLY"> F  </i>
   <i type="logical" name="EVENONLY"> F  </i>
   <i type="int" name="LMAXFOCK">     0</i>
   <i type="int" name="NMAXFOCKAE">     0</i>
   <i type="logical" name="LFOCKAEDFT"> F  </i>
   <i name="HFSCREEN">      0.00000000</i>
   <i name="HFSCREENC">      0.00000000</i>
   <i type="int" name="NBANDSGWLOW">     0</i>
  </separator>
  <separator name="vdW DFT" >
   <i type="logical" name="LUSE_VDW"> F  </i>
   <i name="Zab_VDW">     -0.84910000</i>
   <i name="PARAM1">      0.12340000</i>
   <i name="PARAM2">      1.00000000</i>
   <i name="PARAM3">      0.00000000</i>
  </separator>
  <separator name="model GW" >
   <i type="int" name="MODEL_GW">     0</i>
   <i name="MODEL_EPS0">    144.64285714</i>
   <i name="MODEL_ALPHA">      1.00000000</i>
  </separator>
  <separator name="linear response parameters" >
   <i type="logical" name="LEPSILON"> F  </i>
   <i type="logical" name="LRPA"> F  </i>
   <i type="logical" name="LNABLA"> F  </i>
   <i type="logical" name="LVEL"> F  </i>
   <i type="int" name="KINTER">     0</i>
   <i name="CSHIFT">      0.10000000</i>
   <i name="OMEGAMAX">     -1.00000000</i>
   <i name="DEG_THRESHOLD">      0.00200000</i>
   <i name="RTIME">     -0.10000000</i>
   <i name="WPLASMAI">      0.00000000</i>
   <v name="DFIELD">      0.00000000      0.00000000      0.00000000</v>
   <v name="WPLASMA">      0.00000000      0.00000000      0.00000000      0.00000000      0.00000000      0.00000000      0.00000000      0.00000000      0.00000000</v>
  </separator>
  <separator name="orbital magnetization" >
   <i type="logical" name="NUCIND"> F  </i>
   <v name="MAGPOS">      0.00000000      0.00000000      0.00000000</v>
   <i type="logical" name="LNICSALL"> T  </i>
   <i type="logical" name="ORBITALMAG"> F  </i>
   <i type="logical" name="LMAGBLOCH"> F  </i>
   <i type="logical" name="LCHIMAG"> F  </i>
   <i type="logical" name="LGAUGE"> T  </i>
   <i type="int" name="MAGATOM">     0</i>
   <v name="MAGDIPOL">      0.00000000      0.00000000      0.00000000</v>
   <v name="AVECCONST">      0.00000000      0.00000000      0.00000000</v>
  </separator>
  <separator name="response functions" >
   <i type="logical" name="LADDER"> F  </i>
   <i type="logical" name="LRPAFORCE"> F  </i>
   <i type="logical" name="LFXC"> F  </i>
   <i type="logical" name="LHARTREE"> T  </i>
   <i type="int" name="IBSE">     0</i>
   <v type="int" name="KPOINT">    -1     0     0     0</v>
   <i type="logical" name="LTCTE"> F  </i>
   <i type="logical" name="LTETE"> F  </i>
   <i type="logical" name="LTRIPLET"> F  </i>
   <i type="logical" name="LFXCEPS"> F  </i>
   <i type="logical" name="LFXHEG"> F  </i>
   <i type="int" name="NATURALO">     2</i>
   <i type="logical" name="L2ORDER"> F  </i>
   <i type="logical" name="LMP2LT"> F  </i>
   <i type="logical" name="LUSEW"> F  </i>
   <i name="ENCUTGW">     -2.00000000</i>
   <i name="ENCUTGWSOFT">     -2.00000000</i>
   <i name="ENCUTLF">     -1.00000000</i>
   <i type="int" name="LMAXMP2">    -1</i>
   <i name="SCISSOR">      0.00000000</i>
   <i type="int" name="NOMEGA">     0</i>
   <i type="int" name="NOMEGAR">     0</i>
   <i type="int" name="NBANDSGW">    -1</i>
   <i type="int" name="NBANDSO">    -1</i>
   <i type="int" name="NBANDSV">    -1</i>
   <i type="int" name="NELM">     1</i>
   <i type="int" name="NELMHF">     1</i>
   <i type="int" name="DIM">     3</i>
   <i type="int" name="ANTIRES">     0</i>
   <i name="OMEGAMAX">    -30.00000000</i>
   <i name="OMEGAMIN">    -30.00000000</i>
   <i name="OMEGATL">   -200.00000000</i>
   <i type="int" name="OMEGAGRID">   140</i>
   <i name="CSHIFT">     -0.10000000</i>
   <i type="logical" name="SELFENERGY"> F  </i>
   <i type="logical" name="LSPECTRAL"> F  </i>
   <i type="logical" name="LSPECTRALGW"> F  </i>
   <i type="logical" name="LSINGLES"> F  </i>
   <i type="logical" name="LFERMIGW"> F  </i>
   <i type="logical" name="ODDONLYGW"> F  </i>
   <i type="logical" name="EVENONLYGW"> F  </i>
   <i type="int" name="NKREDLFX">     1</i>
   <i type="int" name="NKREDLFY">     1</i>
   <i type="int" name="NKREDLFZ">     1</i>
   <i type="int" name="MAXMEM">  2800</i>
   <i type="int" name="TELESCOPE">     0</i>
   <i type="int" name="TAUPAR">     1</i>
   <i type="int" name="OMEGAPAR">    -1</i>
   <i name="LAMBDA">      1.00000000</i>
  </separator>
  <separator name="External order field" >
   <i name="OFIELD_KAPPA">      0.00000000</i>
   <v name="OFIELD_K">      0.00000000      0.00000000      0.00000000</v>
   <i name="OFIELD_Q6_NEAR">      0.00000000</i>
   <i name="OFIELD_Q6_FAR">      0.00000000</i>
   <i name="OFIELD_A">      0.00000000</i>
  </separator>
 </parameters>
 <atominfo>
  <atoms>      14 </atoms>
  <types>       3 </types>
  <array name="atoms" >
   <dimension dim="1">ion</dimension>
   <field type="string">element</field>
   <field type="int">atomtype</field>
   <set>
    <rc><c>H </c><c>   1</c></rc>
    <rc><c>H </c><c>   1</c></rc>
    <rc><c>H </c><c>   1</c></rc>
    <rc><c>H </c><c>   1</c></rc>
    <rc><c>H </c><c>   1</c></rc>
    <rc><c>H </c><c>   1</c></rc>
    <rc><c>H </c><c>   1</c></rc>
    <rc><c>C </c><c>   2</c></rc>
    <rc><c>C </c><c>   2</c></rc>
    <rc><c>C </c><c>   2</c></rc>
    <rc><c>C </c><c>   2</c></rc>
    <rc><c>C </c><c>   2</c></rc>
    <rc><c>C </c><c>   2</c></rc>
    <rc><c>O </c><c>   3</c></rc>
   </set>
  </array>
  <array name="atomtypes" >
   <dimension dim="1">type</dimension>
   <field type="int">atomspertype</field>
   <field type="string">element</field>
   <field>mass</field>
   <field>valence</field>
   <field type="string">pseudopotential</field>
   <set>
    <rc><c>   7</c><c>H </c><c>      1.00000000</c><c>      1.00000000</c><c> PAW_PBE H 15Jun2001                    </c></rc>
    <rc><c>   6</c><c>C </c><c>     12.01100000</c><c>      4.00000000</c><c> PAW_PBE C 08Apr2002                    </c></rc>
    <rc><c>   1</c><c>O </c><c>     16.00000000</c><c>      6.00000000</c><c> PAW_PBE O 08Apr2002                    </c></rc>
   </set>
  </array>
 </atominfo>
 <structure name="initialpos" >
  <crystal>
   <varray name="basis" >
    <v>      15.00000000       0.00000000       0.00000000 </v>
    <v>       0.00000000      15.00000000       0.00000000 </v>
    <v>       0.00000000       0.00000000      15.00000000 </v>
   </varray>
   <i name="volume">   3375.00000000 </i>
   <varray name="rec_basis" >
    <v>       0.06666667       0.00000000       0.00000000 </v>
    <v>       0.00000000       0.06666667       0.00000000 </v>
    <v>       0.00000000       0.00000000       0.06666667 </v>
   </varray>
  </crystal>
  <varray name="positions" >
   <v>       0.43345454       0.35648954       0.49586537 </v>
   <v>       0.60025984       0.35617101       0.49723369 </v>
   <v>       0.68329340       0.49998587       0.49664205 </v>
   <v>       0.60025644       0.64379853       0.49710613 </v>
   <v>       0.43343273       0.64347869       0.49576813 </v>
   <v>       0.30680543       0.49884698       0.55145562 </v>
   <v>       0.31515852       0.49599907       0.42929441 </v>
   <v>       0.42484707       0.49999523       0.49657148 </v>
   <v>       0.47089311       0.41894144       0.49638009 </v>
   <v>       0.56399912       0.41932651       0.49657387 </v>
   <v>       0.61057478       0.49997970       0.49634337 </v>
   <v>       0.56399208       0.58064777       0.49645263 </v>
   <v>       0.47087827       0.58101857       0.49624935 </v>
   <v>       0.33206666       0.50006664       0.49166667 </v>
  </varray>
  <varray name="selective"  type="logical" >
   <v type="logical" >  T  T  T </v>
   <v type="logical" >  T  T  T </v>
   <v type="logical" >  T  T  T </v>
   <v type="logical" >  T  T  T </v>
   <v type="logical" >  T  T  T </v>
   <v type="logical" >  T  T  T </v>
   <v type="logical" >  T  T  T </v>
   <v type="logical" >  T  T  T </v>
   <v type="logical" >  T  T  T </v>
   <v type="logical" >  T  T  T </v>
   <v type="logical" >  T  T  T </v>
   <v type="logical" >  T  T  T </v>
   <v type="logical" >  T  T  T </v>
   <v type="logical" >  F  F  F </v>
  </varray>
  <nose>
   <v>      -3.00000000       0.00000000       0.00010000       0.00010000 </v>
  </nose>
 </structure>
 <calculation>
  <scstep>
   <time name="dav">    3.19    3.19</time>
   <time name="total">    5.47    5.47</time>
   <energy>
    <i name="alphaZ">      1.78070422 </i>
    <i name="ewald">   2172.92742921 </i>
    <i name="hartreedc">  -3284.44421869 </i>
    <i name="XCdc">    133.11804564 </i>
    <i name="pawpsdc">    783.36495838 </i>
    <i name="pawaedc">   -793.35249791 </i>
    <i name="eentropy">     -0.03582734 </i>
    <i name="bandstr">   -498.01115399 </i>
    <i name="atom">   1402.37696792 </i>
    <i name="e_fr_energy">    -82.27559255 </i>
    <i name="e_wo_entrp">    -82.23976521 </i>
    <i name="e_0_energy">    -82.25767888 </i>
   </energy>
  </scstep>
  <scstep>
   <time name="dav">    3.47    3.47</time>
   <time name="total">    5.44    5.44</time>
   <energy>
    <i name="alphaZ">      1.78070422 </i>
    <i name="ewald">   2172.92742921 </i>
    <i name="hartreedc">  -3284.44601169 </i>
    <i name="XCdc">    133.11807371 </i>
    <i name="pawpsdc">    783.36505749 </i>
    <i name="pawaedc">   -793.35261761 </i>
    <i name="eentropy">     -0.03579933 </i>
    <i name="bandstr">   -498.00939150 </i>
    <i name="atom">   1402.37696792 </i>
    <i name="e_fr_energy">    -82.27558758 </i>
    <i name="e_wo_entrp">    -82.23978824 </i>
    <i name="e_0_energy">    -82.25768791 </i>
   </energy>
  </scstep>
  <structure>
   <crystal>
    <varray name="basis" >
     <v>      15.00000000       0.00000000       0.00000000 </v>
     <v>       0.00000000      15.00000000       0.00000000 </v>
     <v>       0.00000000       0.00000000      15.00000000 </v>
    </varray>
    <i name="volume">   3375.00000000 </i>
    <varray name="rec_basis" >
     <v>       0.06666667       0.00000000       0.00000000 </v>
     <v>       0.00000000       0.06666667       0.00000000 </v>
     <v>       0.00000000       0.00000000       0.06666667 </v>
    </varray>
   </crystal>
   <varray name="positions" >
    <v>       0.43345454       0.35648954       0.49586537 </v>
    <v>       0.60025984       0.35617101       0.49723369 </v>
    <v>       0.68329340       0.49998587       0.49664205 </v>
    <v>       0.60025644       0.64379853       0.49710613 </v>
    <v>       0.43343273       0.64347869       0.49576813 </v>
    <v>       0.30680543       0.49884698       0.55145562 </v>
    <v>       0.31515852       0.49599907       0.42929441 </v>
    <v>       0.42484707       0.49999523       0.49657148 </v>
    <v>       0.47089311       0.41894144       0.49638009 </v>
    <v>       0.56399912       0.41932651       0.49657387 </v>
    <v>       0.61057478       0.49997970       0.49634337 </v>
    <v>       0.56399208       0.58064777       0.49645263 </v>
    <v>       0.47087827       0.58101857       0.49624935 </v>
    <v>       0.33206666       0.50006664       0.49166667 </v>
   </varray>
  </structure>
  <varray name="forces" >
   <v>       0.05060150       0.03894578       0.02162953 </v>
   <v>      -0.04175356       0.03300367      -0.02356582 </v>
   <v>       0.00846852      -0.00088278      -0.00388630 </v>
   <v>      -0.04179875      -0.03189157      -0.02074191 </v>
   <v>       0.04696002      -0.04578115       0.00643949 </v>
   <v>      -2.08019385      -0.11644340       2.65847788 </v>
   <v>      -1.98829085      -0.27747854      -3.17149602 </v>
   <v>       2.82125989       0.03619351       0.27244018 </v>
   <v>      -0.24398414      -0.01232134      -0.04448908 </v>
   <v>      -0.02344413      -0.02486385       0.00158672 </v>
   <v>       0.00546873      -0.00737584       0.06195973 </v>
   <v>      -0.03418573       0.03442277       0.00687910 </v>
   <v>      -0.23783773       0.00673929      -0.01745801 </v>
   <v>       1.75873008       0.36773345       0.25222453 </v>
  </varray>
  <varray name="stress" >
   <v>       1.12259939       0.06949216       0.08034063 </v>
   <v>       0.06949216      -0.95561807       0.07654379 </v>
   <v>       0.08034063       0.07654379       1.64494013 </v>
  </varray>
  <energy>
   <i name="e_fr_energy">    -82.63144530 </i>
   <i name="e_wo_entrp">    -82.61354564 </i>
   <i name="e_0_energy">     -0.03579933 </i>
  </energy>
  <time name="totalsc">   23.27   23.27</time>
 </calculation>
 <calculation>
  <scstep>
   <time name="dav">    3.91    3.91</time>
   <time name="total">    6.18    6.18</time>
   <energy>
    <i name="alphaZ">      1.78070422 </i>
    <i name="ewald">   2173.63060308 </i>
    <i name="hartreedc">  -3284.89129682 </i>
    <i name="XCdc">    133.13536259 </i>
    <i name="pawpsdc">    783.36474478 </i>
    <i name="pawaedc">   -793.35230426 </i>
    <i name="eentropy">     -0.03679135 </i>
    <i name="bandstr">   -498.28225974 </i>
    <i name="atom">   1402.37696792 </i>
    <i name="e_fr_energy">    -82.27426957 </i>
    <i name="e_wo_entrp">    -82.23747822 </i>
    <i name="e_0_energy">    -82.25587390 </i>
   </energy>
  </scstep>
  <scstep>
   <time name="dav">    3.90    3.90</time>
   <time name="total">    6.16    6.16</time>
   <energy>
    <i name="e_fr_energy">    -82.27394669 </i>
    <i name="e_wo_entrp">    -82.23793244 </i>
    <i name="e_0_energy">    -82.25593956 </i>
   </energy>
  </scstep>
  <scstep>
   <time name="dav">    3.76    3.76</time>
   <time name="total">    6.04    6.04</time>
   <energy>
    <i name="e_fr_energy">    -82.27406489 </i>
    <i name="e_wo_entrp">    -82.23871987 </i>
    <i name="e_0_energy">    -82.25639238 </i>
   </energy>
  </scstep>
  <scstep>
   <time name="dav">    3.91    3.91</time>
   <time name="total">    6.18    6.18</time>
   <energy>
    <i name="e_fr_energy">    -82.27406032 </i>
    <i name="e_wo_entrp">    -82.23818075 </i>
    <i name="e_0_energy">    -82.25612054 </i>
   </energy>
  </scstep>
  <scstep>
   <time name="dav">    3.24    3.24</time>
   <time name="total">    5.20    5.20</time>
   <energy>
    <i name="alphaZ">      1.78070422 </i>
    <i name="ewald">   2173.63060308 </i>
    <i name="hartreedc">  -3285.09646227 </i>
    <i name="XCdc">    133.14643368 </i>
    <i name="pawpsdc">    783.93193645 </i>
    <i name="pawaedc">   -793.92206379 </i>
    <i name="eentropy">     -0.03581426 </i>
    <i name="bandstr">   -498.08636488 </i>
    <i name="atom">   1402.37696792 </i>
    <i name="e_fr_energy">    -82.27405985 </i>
    <i name="e_wo_entrp">    -82.23824559 </i>
    <i name="e_0_energy">    -82.25615272 </i>
   </energy>
  </scstep>
  <structure>
   <crystal>
    <varray name="basis" >
     <v>      15.00000000       0.00000000       0.00000000 </v>
     <v>       0.00000000      15.00000000       0.00000000 </v>
     <v>       0.00000000       0.00000000      15.00000000 </v>
    </varray>
    <i name="volume">   3375.00000000 </i>
    <varray name="rec_basis" >
     <v>       0.06666667       0.00000000       0.00000000 </v>
     <v>       0.00000000       0.06666667       0.00000000 </v>
     <v>       0.00000000       0.00000000       0.06666667 </v>
    </varray>
   </crystal>
   <varray name="positions" >
    <v>       0.43478788       0.35648954       0.49586537 </v>
    <v>       0.60025984       0.35617101       0.49723369 </v>
    <v>       0.68329340       0.49998587       0.49664205 </v>
    <v>       0.60025644       0.64379853       0.49710613 </v>
    <v>       0.43343273       0.64347869       0.49576813 </v>
    <v>       0.30680543       0.49884698       0.55145562 </v>
    <v>       0.31515852       0.49599907       0.42929441 </v>
    <v>       0.42484707       0.49999523       0.49657148 </v>
    <v>       0.47089311       0.41894144       0.49638009 </v>
    <v>       0.56399912       0.41932651       0.49657387 </v>
    <v>       0.61057478       0.49997970       0.49634337 </v>
    <v>       0.56399208       0.58064777       0.49645263 </v>
    <v>       0.47087827       0.58101857       0.49624935 </v>
    <v>       0.33206666       0.50006664       0.49166667 </v>
   </varray>
  </structure>
  <varray name="forces" >
   <v>      -0.19701925      -0.21234237       0.01987314 </v>
   <v>      -0.04375435       0.03238534      -0.02360379 </v>
   <v>       0.00943012       0.00170477      -0.00392088 </v>
   <v>      -0.04184495      -0.03157494      -0.02070307 </v>
   <v>       0.04637360      -0.04710677       0.00652988 </v>
   <v>      -2.07985131      -0.11725358       2.65668574 </v>
   <v>      -1.98852348      -0.27817884      -3.17014976 </v>
   <v>       2.80636719       0.00865694       0.27331888 </v>
   <v>      -0.00679333       0.22195282      -0.04307886 </v>
   <v>      -0.00508948       0.02823317       0.00176125 </v>
   <v>       0.01644907      -0.01103114       0.06217392 </v>
   <v>      -0.03401117       0.03420284       0.00679869 </v>
   <v>      -0.23480776       0.00048406      -0.01747485 </v>
   <v>       1.75307509       0.36986772       0.25178971 </v>
  </varray>
  <varray name="stress" >
   <v>       1.21809778       0.17727746       0.08161833 </v>
   <v>       0.17727746      -0.87065091       0.07749406 </v>
   <v>       0.08161833       0.07749406       1.64318849 </v>
  </varray>
  <energy>
   <i name="e_fr_energy">    -82.62996086 </i>
   <i name="e_wo_entrp">    -82.61205373 </i>
   <i name="e_0_energy">     -0.03581426 </i>
  </energy>
  <time name="totalsc">   36.69   36.70</time>
 </calculation>
 <calculation>
  <scstep>
   <time name="dav">    3.68    3.68</time>
   <time name="total">    5.94    5.94</time>
   <energy>
    <i name="alphaZ">      1.78070422 </i>
    <i name="ewald">   2172.22245122 </i>
    <i name="hartreedc">  -3284.20006561 </i>
    <i name="XCdc">    133.11135950 </i>
    <i name="pawpsdc">    783.93242071 </i>
    <i name="pawaedc">   -793.92258657 </i>
    <i name="eentropy">     -0.03393987 </i>
    <i name="bandstr">   -497.54023482 </i>
    <i name="atom">   1402.37696792 </i>
    <i name="e_fr_energy">    -82.27292330 </i>
    <i name="e_wo_entrp">    -82.23898343 </i>
    <i name="e_0_energy">    -82.25595337 </i>
   </energy>
  </scstep>
  <scstep>
   <time name="dav">    4.07    4.07</time>
   <time name="total">    6.34    6.34</time>
   <energy>
    <i name="e_fr_energy">    -82.27211680 </i>
    <i name="e_wo_entrp">    -82.23678552 </i>
    <i name="e_0_energy">    -82.25445116 </i>
   </energy>
  </scstep>
  <scstep>
   <time name="dav">    3.69    3.69</time>
   <time name="total">    5.96    5.96</time>
   <energy>
    <i name="e_fr_energy">    -82.27135716 </i>
    <i name="e_wo_entrp">    -82.23468435 </i>
    <i name="e_0_energy">    -82.25302075 </i>
   </energy>
  </scstep>
  <scstep>
   <time name="dav">    3.71    3.71</time>
   <time name="total">    5.97    5.97</time>
   <energy>
    <i name="e_fr_energy">    -82.27167887 </i>
    <i name="e_wo_entrp">    -82.23602917 </i>
    <i name="e_0_energy">    -82.25385402 </i>
   </energy>
  </scstep>
  <scstep>
   <time name="dav">    4.03    4.03</time>
   <time name="total">    6.31    6.31</time>
   <energy>
    <i name="e_fr_energy">    -82.27203291 </i>
    <i name="e_wo_entrp">    -82.23630567 </i>
    <i name="e_0_energy">    -82.25416929 </i>
   </energy>
  </scstep>
  <scstep>
   <time name="dav">    3.57    3.57</time>
   <time name="total">    5.85    5.85</time>
   <energy>
    <i name="e_fr_energy">    -82.27210553 </i>
    <i name="e_wo_entrp">    -82.23629851 </i>
    <i name="e_0_energy">    -82.25420202 </i>
   </energy>
  </scstep>
  <scstep>
   <time name="dav">    3.37    3.37</time>
   <time name="total">    5.65    5.65</time>
   <energy>
    <i name="e_fr_energy">    -82.27212682 </i>
    <i name="e_wo_entrp">    -82.23630266 </i>
    <i name="e_0_energy">    -82.25421474 </i>
   </energy>
  </scstep>
  <scstep>
   <time name="dav">    3.40    3.40</time>
   <time name="total">    5.35    5.35</time>
   <energy>
    <i name="alphaZ">      1.78070422 </i>
    <i name="ewald">   2172.22245122 </i>
    <i name="hartreedc">  -3283.79951011 </i>
    <i name="XCdc">    133.08988498 </i>
    <i name="pawpsdc">    782.80700943 </i>
    <i name="pawaedc">   -792.79197692 </i>
    <i name="eentropy">     -0.03580224 </i>
    <i name="bandstr">   -497.92185981 </i>
    <i name="atom">   1402.37696792 </i>
    <i name="e_fr_energy">    -82.27213131 </i>
    <i name="e_wo_entrp">    -82.23632907 </i>
    <i name="e_0_energy">    -82.25423019 </i>
   </energy>
  </scstep>
  <structure>
   <crystal>
    <varray name="basis" >
     <v>      15.00000000       0.00000000       0.00000000 </v>
     <v>       0.00000000      15.00000000       0.00000000 </v>
     <v>       0.00000000       0.00000000      15.00000000 </v>
    </varray>
    <i name="volume">   3375.00000000 </i>
    <varray name="rec_basis" >
     <v>       0.06666667       0.00000000       0.00000000 </v>
     <v>       0.00000000       0.06666667       0.00000000 </v>
     <v>       0.00000000       0.00000000       0.06666667 </v>
    </varray>
   </crystal>
   <varray name="positions" >
    <v>       0.43212121       0.35648954       0.49586537 </v>
    <v>       0.60025984       0.35617101       0.49723369 </v>
    <v>       0.68329340       0.49998587       0.49664205 </v>
    <v>       0.60025644       0.64379853       0.49710613 </v>
    <v>       0.43343273       0.64347869       0.49576813 </v>
    <v>       0.30680543       0.49884698       0.55145562 </v>
    <v>       0.31515852       0.49599907       0.42929441 </v>
    <v>       0.42484707       0.49999523       0.49657148 </v>
    <v>       0.47089311       0.41894144       0.49638009 </v>
    <v>       0.56399912       0.41932651       0.49657387 </v>
    <v>       0.61057478       0.49997970       0.49634337 </v>
    <v>       0.56399208       0.58064777       0.49645263 </v>
    <v>       0.47087827       0.58101857       0.49624935 </v>
    <v>       0.33206666       0.50006664       0.49166667 </v>
   </varray>
  </structure>
  <varray name="forces" >
   <v>       0.29713803       0.27573241       0.02337993 </v>
   <v>      -0.03964638       0.03348649      -0.02351890 </v>
   <v>       0.00740344      -0.00336778      -0.00384836 </v>
   <v>      -0.04152609      -0.03200272      -0.02077369 </v>
   <v>       0.04756324      -0.04434159       0.00635409 </v>
   <v>      -2.08049977      -0.11552967       2.66056674 </v>
   <v>      -1.98792084      -0.27667287      -3.17304161 </v>
   <v>       2.83598610       0.06196970       0.27149761 </v>
   <v>      -0.48081595      -0.23287841      -0.04573872 </v>
   <v>      -0.04154429      -0.07642115       0.00143161 </v>
   <v>      -0.00506925      -0.00332044       0.06173112 </v>
   <v>      -0.03410135       0.03454814       0.00696966 </v>
   <v>      -0.24065629       0.01306254      -0.01744135 </v>
   <v>       1.76368938       0.36573535       0.25243186 </v>
  </varray>
  <varray name="stress" >
   <v>       1.02291723      -0.03710703       0.07901018 </v>
   <v>      -0.03710703      -1.03567352       0.07570208 </v>
   <v>       0.07901018       0.07570209       1.64638354 </v>
  </varray>
  <energy>
   <i name="e_fr_energy">    -82.62794612 </i>
   <i name="e_wo_entrp">    -82.61004500 </i>
   <i name="e_0_energy">     -0.03580224 </i>
  </energy>
  <time name="totalsc">   54.29   54.30</time>
 </calculation>
 <calculation>
  <scstep>
   <time name="dav">    4.43    4.43</time>
   <time name="total">    6.69    6.69</time>
   <energy>
    <i name="alphaZ">      1.78070422 </i>
    <i name="ewald">   2174.60228629 </i>
    <i name="hartreedc">  -3285.46937341 </i>
    <i name="XCdc">    133.13872205 </i>
    <i name="pawpsdc">    782.80629989 </i>
    <i name="pawaedc">   -792.79125397 </i>
    <i name="eentropy">     -0.03816207 </i>
    <i name="bandstr">   -498.67839042 </i>
    <i name="atom">   1402.37696792 </i>
    <i name="e_fr_energy">    -82.27219950 </i>
    <i name="e_wo_entrp">    -82.23403743 </i>
    <i name="e_0_energy">    -82.25311846 </i>
   </energy>
  </scstep>
  <scstep>
   <time name="dav">    3.88    3.88</time>
   <time name="total">    6.15    6.15</time>
   <energy>
    <i name="e_fr_energy">    -82.27065127 </i>
    <i name="e_wo_entrp">    -82.23462137 </i>
    <i name="e_0_energy">    -82.25263632 </i>
   </energy>
  </scstep>
  <scstep>
   <time name="dav">    3.69    3.69</time>
   <time name="total">    5.96    5.96</time>
   <energy>
    <i name="e_fr_energy">    -82.27082971 </i>
    <i name="e_wo_entrp">    -82.23628229 </i>
    <i name="e_0_energy">    -82.25355600 </i>
   </energy>
  </scstep>
  <scstep>
   <time name="dav">    3.90    3.90</time>
   <time name="total">    6.17    6.17</time>
   <energy>
    <i name="e_fr_energy">    -82.27076947 </i>
    <i name="e_wo_entrp">    -82.23504492 </i>
    <i name="e_0_energy">    -82.25290719 </i>
   </energy>
  </scstep>
  <scstep>
   <time name="dav">    3.90    3.90</time>
   <time name="total">    6.17    6.17</time>
   <energy>
    <i name="e_fr_energy">    -82.27079256 </i>
    <i name="e_wo_entrp">    -82.23528757 </i>
    <i name="e_0_energy">    -82.25304006 </i>
   </energy>
  </scstep>
  <scstep>
   <time name="dav">    3.40    3.40</time>
   <time name="total">    5.67    5.67</time>
   <energy>
    <i name="e_fr_energy">    -82.27084662 </i>
    <i name="e_wo_entrp">    -82.23542339 </i>
    <i name="e_0_energy">    -82.25313501 </i>
   </energy>
  </scstep>
  <scstep>
   <time name="dav">    3.03    3.03</time>
   <time name="total">    5.30    5.30</time>
   <energy>
    <i name="e_fr_energy">    -82.27086498 </i>
    <i name="e_wo_entrp">    -82.23545326 </i>
    <i name="e_0_energy">    -82.25315912 </i>
   </energy>
  </scstep>
  <scstep>
   <time name="dav">    3.40    3.40</time>
   <time name="total">    5.35    5.35</time>
   <energy>
    <i name="alphaZ">      1.78070422 </i>
    <i name="ewald">   2174.60228629 </i>
    <i name="hartreedc">  -3285.94471281 </i>
    <i name="XCdc">    133.16541311 </i>
    <i name="pawpsdc">    784.31849183 </i>
    <i name="pawaedc">   -794.31019989 </i>
    <i name="eentropy">     -0.03542371 </i>
    <i name="bandstr">   -498.22440049 </i>
    <i name="atom">   1402.37696792 </i>
    <i name="e_fr_energy">    -82.27087354 </i>
    <i name="e_wo_entrp">    -82.23544983 </i>
    <i name="e_0_energy">    -82.25316169 </i>
   </energy>
  </scstep>
  <structure>
   <crystal>
    <varray name="basis" >
     <v>      15.00000000       0.00000000       0.00000000 </v>
     <v>       0.00000000      15.00000000       0.00000000 </v>
     <v>       0.00000000       0.00000000      15.00000000 </v>
    </varray>
    <i name="volume">   3375.00000000 </i>
    <varray name="rec_basis" >
     <v>       0.06666667       0.00000000       0.00000000 </v>
     <v>       0.00000000       0.06666667       0.00000000 </v>
     <v>       0.00000000       0.00000000       0.06666667 </v>
    </varray>
   </crystal>
   <varray name="positions" >
    <v>       0.43345454       0.35782287       0.49586537 </v>
    <v>       0.60025984       0.35617101       0.49723369 </v>
    <v>       0.68329340       0.49998587       0.49664205 </v>
    <v>       0.60025644       0.64379853       0.49710613 </v>
    <v>       0.43343273       0.64347869       0.49576813 </v>
    <v>       0.30680543       0.49884698       0.55145562 </v>
    <v>       0.31515852       0.49599907       0.42929441 </v>
    <v>       0.42484707       0.49999523       0.49657148 </v>
    <v>       0.47089311       0.41894144       0.49638009 </v>
    <v>       0.56399912       0.41932651       0.49657387 </v>
    <v>       0.61057478       0.49997970       0.49634337 </v>
    <v>       0.56399208       0.58064777       0.49645263 </v>
    <v>       0.47087827       0.58101857       0.49624935 </v>
    <v>       0.33206666       0.50006664       0.49166667 </v>
   </varray>
  </structure>
  <varray name="forces" >
   <v>      -0.21120053      -0.49904657       0.01756069 </v>
   <v>      -0.04107626       0.03176512      -0.02366514 </v>
   <v>       0.00807101      -0.00115176      -0.00387777 </v>
   <v>      -0.04159303      -0.03193341      -0.02074834 </v>
   <v>       0.04827383      -0.04413641       0.00639519 </v>
   <v>      -2.08066860      -0.11612562       2.66115762 </v>
   <v>      -1.98795996      -0.27726536      -3.17376775 </v>
   <v>       2.85582975       0.07389435       0.27158363 </v>
   <v>      -0.00436702       0.50020933      -0.04100424 </v>
   <v>      -0.02553872      -0.03191237       0.00187328 </v>
   <v>       0.00206215      -0.01152682       0.06208981 </v>
   <v>      -0.03396991       0.03344669       0.00706323 </v>
   <v>      -0.24786780       0.01061308      -0.01713529 </v>
   <v>       1.76000510       0.36316976       0.25247507 </v>
  </varray>
  <varray name="stress" >
   <v>       1.17314820       0.19181890       0.08099600 </v>
   <v>       0.19181890      -0.70064298       0.07878521 </v>
   <v>       0.08099600       0.07878521       1.64563708 </v>
  </varray>
  <energy>
   <i name="e_fr_energy">    -82.62691733 </i>
   <i name="e_wo_entrp">    -82.60920548 </i>
   <i name="e_0_energy">     -0.03542371 </i>
  </energy>
  <time name="totalsc">   54.38   54.38</time>
 </calculation>
 <calculation>
  <scstep>
   <time name="dav">    4.26    4.26</time>
   <time name="total">    6.53    6.53</time>
   <energy>
    <i name="alphaZ">      1.78070422 </i>
    <i name="ewald">   2171.28145453 </i>
    <i name="hartreedc">  -3283.49823259 </i>
    <i name="XCdc">    133.10231676 </i>
    <i name="pawpsdc">    784.32081880 </i>
    <i name="pawaedc">   -794.31254931 </i>
    <i name="eentropy">     -0.03331774 </i>
    <i name="bandstr">   -497.29003164 </i>
    <i name="atom">   1402.37696792 </i>
    <i name="e_fr_energy">    -82.27186906 </i>
    <i name="e_wo_entrp">    -82.23855132 </i>
    <i name="e_0_energy">    -82.25521019 </i>
   </energy>
  </scstep>
  <scstep>
   <time name="dav">    4.05    4.05</time>
   <time name="total">    6.31    6.31</time>
   <energy>
    <i name="e_fr_energy">    -82.27010651 </i>
    <i name="e_wo_entrp">    -82.23489362 </i>
    <i name="e_0_energy">    -82.25250006 </i>
   </energy>
  </scstep>
  <scstep>
   <time name="dav">    4.06    4.06</time>
   <time name="total">    6.33    6.33</time>
   <energy>
    <i name="e_fr_energy">    -82.26871661 </i>
    <i name="e_wo_entrp">    -82.23157542 </i>
    <i name="e_0_energy">    -82.25014601 </i>
   </energy>
  </scstep>
  <scstep>
   <time name="dav">    3.68    3.68</time>
   <time name="total">    5.95    5.95</time>
   <energy>
    <i name="e_fr_energy">    -82.26910714 </i>
    <i name="e_wo_entrp">    -82.23324311 </i>
    <i name="e_0_energy">    -82.25117512 </i>
   </energy>
  </scstep>
  <scstep>
   <time name="dav">    3.88    3.88</time>
   <time name="total">    6.15    6.15</time>
   <energy>
    <i name="e_fr_energy">    -82.26969183 </i>
    <i name="e_wo_entrp">    -82.23365710 </i>
    <i name="e_0_energy">    -82.25167447 </i>
   </energy>
  </scstep>
  <scstep>
   <time name="dav">    4.25    4.25</time>
   <time name="total">    6.53    6.53</time>
   <energy>
    <i name="e_fr_energy">    -82.26984692 </i>
    <i name="e_wo_entrp">    -82.23371181 </i>
    <i name="e_0_energy">    -82.25177937 </i>
   </energy>
  </scstep>
  <scstep>
   <time name="dav">    3.03    3.03</time>
   <time name="total">    5.30    5.30</time>
   <energy>
    <i name="e_fr_energy">    -82.26992203 </i>
    <i name="e_wo_entrp">    -82.23378578 </i>
    <i name="e_0_energy">    -82.25185390 </i>
   </energy>
  </scstep>
  <scstep>
   <time name="dav">    3.42    3.42</time>
   <time name="total">    5.70    5.70</time>
   <energy>
    <i name="e_fr_energy">    -82.26993632 </i>
    <i name="e_wo_entrp">    -82.23381224 </i>
    <i name="e_0_energy">    -82.25187428 </i>
   </energy>
  </scstep>
  <scstep>
   <time name="dav">    3.40    3.40</time>
   <time name="total">    5.36    5.36</time>
   <energy>
    <i name="alphaZ">      1.78070422 </i>
    <i name="ewald">   2171.28145453 </i>
    <i name="hartreedc">  -3282.96768571 </i>
    <i name="XCdc">    133.07173572 </i>
    <i name="pawpsdc">    782.46426651 </i>
    <i name="pawaedc">   -792.44782572 </i>
    <i name="eentropy">     -0.03611468 </i>
    <i name="bandstr">   -497.79344126 </i>
    <i name="atom">   1402.37696792 </i>
    <i name="e_fr_energy">    -82.26993848 </i>
    <i name="e_wo_entrp">    -82.23382380 </i>
    <i name="e_0_energy">    -82.25188114 </i>
   </energy>
  </scstep>
  <structure>
   <crystal>
    <varray name="basis" >
     <v>      15.00000000       0.00000000       0.00000000 </v>
     <v>       0.00000000      15.00000000       0.00000000 </v>
     <v>       0.00000000       0.00000000      15.00000000 </v>
    </varray>
    <i name="volume">   3375.00000000 </i>
    <varray name="rec_basis" >
     <v>       0.06666667       0.00000000       0.00000000 </v>
     <v>       0.00000000       0.06666667       0.00000000 </v>
     <v>       0.00000000       0.00000000       0.06666667 </v>
    </varray>
   </crystal>
   <varray name="positions" >
    <v>       0.43345454       0.35515621       0.49586537 </v>
    <v>       0.60025984       0.35617101       0.49723369 </v>
    <v>       0.68329340       0.49998587       0.49664205 </v>
    <v>       0.60025644       0.64379853       0.49710613 </v>
    <v>       0.43343273       0.64347869       0.49576813 </v>
    <v>       0.30680543       0.49884698       0.55145562 </v>
    <v>       0.31515852       0.49599907       0.42929441 </v>
    <v>       0.42484707       0.49999523       0.49657148 </v>
    <v>       0.47089311       0.41894144       0.49638009 </v>
    <v>       0.56399912       0.41932651       0.49657387 </v>
    <v>       0.61057478       0.49997970       0.49634337 </v>
    <v>       0.56399208       0.58064777       0.49645263 </v>
    <v>       0.47087827       0.58101857       0.49624935 </v>
    <v>       0.33206666       0.50006664       0.49166667 </v>
   </varray>
  </structure>
  <varray name="forces" >
   <v>       0.27912069       0.53477943       0.02492216 </v>
   <v>      -0.04222782       0.03420484      -0.02343689 </v>
   <v>       0.00884117      -0.00071682      -0.00387250 </v>
   <v>      -0.04189360      -0.03180218      -0.02071047 </v>
   <v>       0.04564645      -0.04740739       0.00651593 </v>
   <v>      -2.07977086      -0.11678917       2.65635183 </v>
   <v>      -1.98851016      -0.27771075      -3.16956600 </v>
   <v>       2.78745916      -0.00033637       0.27318843 </v>
   <v>      -0.45040515      -0.48264474      -0.04748081 </v>
   <v>      -0.02197785      -0.01901686       0.00134934 </v>
   <v>       0.00859855      -0.00300082       0.06184434 </v>
   <v>      -0.03426360       0.03533066       0.00674827 </v>
   <v>      -0.22796478       0.00305611      -0.01771443 </v>
   <v>       1.75734779       0.37205406       0.25186082 </v>
  </varray>
  <varray name="stress" >
   <v>       1.07968107      -0.04263448       0.07977721 </v>
   <v>      -0.04263448      -1.20038889       0.07450261 </v>
   <v>       0.07977721       0.07450261       1.64385196 </v>
  </varray>
  <energy>
   <i name="e_fr_energy">    -82.62561484 </i>
   <i name="e_wo_entrp">    -82.60755750 </i>
   <i name="e_0_energy">     -0.03611468 </i>
  </energy>
  <time name="totalsc">   61.09   61.09</time>
 </calculation>
 <calculation>
  <scstep>
   <time name="dav">    4.10    4.10</time>
   <time name="total">    6.37    6.37</time>
   <energy>
    <i name="alphaZ">      1.78070422 </i>
    <i name="ewald">   2172.91622289 </i>
    <i name="hartreedc">  -3284.17513692 </i>
    <i name="XCdc">    133.10274877 </i>
    <i name="pawpsdc">    782.46502623 </i>
    <i name="pawaedc">   -792.44859251 </i>
    <i name="eentropy">     -0.03733010 </i>
    <i name="bandstr">   -498.25656190 </i>
    <i name="atom">   1402.37696792 </i>
    <i name="e_fr_energy">    -82.27595139 </i>
    <i name="e_wo_entrp">    -82.23862130 </i>
    <i name="e_0_energy">    -82.25728635 </i>
   </energy>
  </scstep>
  <scstep>
   <time name="dav">    4.06    4.06</time>
   <time name="total">    6.33    6.33</time>
   <energy>
    <i name="e_fr_energy">    -82.27535701 </i>
    <i name="e_wo_entrp">    -82.23928784 </i>
    <i name="e_0_energy">    -82.25732242 </i>
   </energy>
  </scstep>
  <scstep>
   <time name="dav">    3.85    3.85</time>
   <time name="total">    6.12    6.12</time>
   <energy>
    <i name="e_fr_energy">    -82.27551543 </i>
    <i name="e_wo_entrp">    -82.24062946 </i>
    <i name="e_0_energy">    -82.25807244 </i>
   </energy>
  </scstep>
  <scstep>
   <time name="dav">    3.89    3.89</time>
   <time name="total">    6.16    6.16</time>
   <energy>
    <i name="e_fr_energy">    -82.27551742 </i>
    <i name="e_wo_entrp">    -82.23985748 </i>
    <i name="e_0_energy">    -82.25768745 </i>
   </energy>
  </scstep>
  <scstep>
   <time name="dav">    3.39    3.39</time>
   <time name="total">    5.34    5.34</time>
   <energy>
    <i name="alphaZ">      1.78070422 </i>
    <i name="ewald">   2172.91622289 </i>
    <i name="hartreedc">  -3284.47247594 </i>
    <i name="XCdc">    133.11893774 </i>
    <i name="pawpsdc">    783.36896687 </i>
    <i name="pawaedc">   -793.35649076 </i>
    <i name="eentropy">     -0.03560685 </i>
    <i name="bandstr">   -497.97275195 </i>
    <i name="atom">   1402.37696792 </i>
    <i name="e_fr_energy">    -82.27552586 </i>
    <i name="e_wo_entrp">    -82.23991902 </i>
    <i name="e_0_energy">    -82.25772244 </i>
   </energy>
  </scstep>
  <structure>
   <crystal>
    <varray name="basis" >
     <v>      15.00000000       0.00000000       0.00000000 </v>
     <v>       0.00000000      15.00000000       0.00000000 </v>
     <v>       0.00000000       0.00000000      15.00000000 </v>
    </varray>
    <i name="volume">   3375.00000000 </i>
    <varray name="rec_basis" >
     <v>       0.06666667       0.00000000       0.00000000 </v>
     <v>       0.00000000       0.06666667       0.00000000 </v>
     <v>       0.00000000       0.00000000       0.06666667 </v>
    </varray>
   </crystal>
   <varray name="positions" >
    <v>       0.43345454       0.35648954       0.49719871 </v>
    <v>       0.60025984       0.35617101       0.49723369 </v>
    <v>       0.68329340       0.49998587       0.49664205 </v>
    <v>       0.60025644       0.64379853       0.49710613 </v>
    <v>       0.43343273       0.64347869       0.49576813 </v>
    <v>       0.30680543       0.49884698       0.55145562 </v>
    <v>       0.31515852       0.49599907       0.42929441 </v>
    <v>       0.42484707       0.49999523       0.49657148 </v>
    <v>       0.47089311       0.41894144       0.49638009 </v>
    <v>       0.56399912       0.41932651       0.49657387 </v>
    <v>       0.61057478       0.49997970       0.49634337 </v>
    <v>       0.56399208       0.58064777       0.49645263 </v>
    <v>       0.47087827       0.58101857       0.49624935 </v>
    <v>       0.33206666       0.50006664       0.49166667 </v>
   </varray>
  </structure>
  <varray name="forces" >
   <v>       0.05197479       0.04016076      -0.02254037 </v>
   <v>      -0.04163696       0.03257690      -0.01588900 </v>
   <v>       0.00825523      -0.00098284      -0.00386701 </v>
   <v>      -0.04165406      -0.03185178      -0.01830793 </v>
   <v>       0.04693903      -0.04558120       0.00536850 </v>
   <v>      -2.07649252      -0.11431452       2.65373502 </v>
   <v>      -1.99142222      -0.28018092      -3.17418393 </v>
   <v>       2.82202512       0.03954232       0.28045609 </v>
   <v>      -0.24353466      -0.01581364       0.01301596 </v>
   <v>      -0.02457053      -0.02352271      -0.00556454 </v>
   <v>       0.00625140      -0.00898583       0.04943198 </v>
   <v>      -0.03483296       0.03582649       0.00737203 </v>
   <v>      -0.23754465       0.00535686      -0.02807733 </v>
   <v>       1.75624299       0.36777010       0.25905051 </v>
  </varray>
  <varray name="stress" >
   <v>       1.12129124       0.06905372       0.08377914 </v>
   <v>       0.06905372      -0.95619015       0.07797796 </v>
   <v>       0.08377914       0.07797796       1.64349228 </v>
  </varray>
  <energy>
   <i name="e_fr_energy">    -82.63138110 </i>
   <i name="e_wo_entrp">    -82.61357768 </i>
   <i name="e_0_energy">     -0.03560685 </i>
  </energy>
  <time name="totalsc">   37.25   37.25</time>
 </calculation>
 <calculation>
  <scstep>
   <time name="dav">    4.07    4.07</time>
   <time name="total">    6.34    6.34</time>
   <energy>
    <i name="alphaZ">      1.78070422 </i>
    <i name="ewald">   2172.91233083 </i>
    <i name="hartreedc">  -3284.47352998 </i>
    <i name="XCdc">    133.11833824 </i>
    <i name="pawpsdc">    783.36794948 </i>
    <i name="pawaedc">   -793.35548859 </i>
    <i name="eentropy">     -0.03560963 </i>
    <i name="bandstr">   -497.96626745 </i>
    <i name="atom">   1402.37696792 </i>
    <i name="e_fr_energy">    -82.27460496 </i>
    <i name="e_wo_entrp">    -82.23899533 </i>
    <i name="e_0_energy">    -82.25680015 </i>
   </energy>
  </scstep>
  <scstep>
   <time name="dav">    4.24    4.24</time>
   <time name="total">    6.51    6.51</time>
   <energy>
    <i name="e_fr_energy">    -82.27458971 </i>
    <i name="e_wo_entrp">    -82.23875689 </i>
    <i name="e_0_energy">    -82.25667330 </i>
   </energy>
  </scstep>
  <scstep>
   <time name="dav">    3.50    3.50</time>
   <time name="total">    5.77    5.77</time>
   <energy>
    <i name="e_fr_energy">    -82.27420860 </i>
    <i name="e_wo_entrp">    -82.23801645 </i>
    <i name="e_0_energy">    -82.25611252 </i>
   </energy>
  </scstep>
  <scstep>
   <time name="dav">    4.06    4.06</time>
   <time name="total">    6.33    6.33</time>
   <energy>
    <i name="e_fr_energy">    -82.27429744 </i>
    <i name="e_wo_entrp">    -82.23822384 </i>
    <i name="e_0_energy">    -82.25626064 </i>
   </energy>
  </scstep>
  <scstep>
   <time name="dav">    3.21    3.21</time>
   <time name="total">    5.49    5.49</time>
   <energy>
    <i name="e_fr_energy">    -82.27452252 </i>
    <i name="e_wo_entrp">    -82.23854496 </i>
    <i name="e_0_energy">    -82.25653374 </i>
   </energy>
  </scstep>
  <scstep>
   <time name="dav">    3.55    3.55</time>
   <time name="total">    5.83    5.83</time>
   <energy>
    <i name="e_fr_energy">    -82.27460217 </i>
    <i name="e_wo_entrp">    -82.23861339 </i>
    <i name="e_0_energy">    -82.25660778 </i>
   </energy>
  </scstep>
  <scstep>
   <time name="dav">    3.42    3.42</time>
   <time name="total">    5.69    5.69</time>
   <energy>
    <i name="e_fr_energy">    -82.27463344 </i>
    <i name="e_wo_entrp">    -82.23860687 </i>
    <i name="e_0_energy">    -82.25662015 </i>
   </energy>
  </scstep>
  <scstep>
   <time name="dav">    3.36    3.36</time>
   <time name="total">    5.65    5.65</time>
   <energy>
    <i name="e_fr_energy">    -82.27464850 </i>
    <i name="e_wo_entrp">    -82.23861244 </i>
    <i name="e_0_energy">    -82.25663047 </i>
   </energy>
  </scstep>
  <scstep>
   <time name="dav">    3.24    3.24</time>
   <time name="total">    5.53    5.53</time>
   <energy>
    <i name="e_fr_energy">    -82.27467071 </i>
    <i name="e_wo_entrp">    -82.23864097 </i>
    <i name="e_0_energy">    -82.25665584 </i>
   </energy>
  </scstep>
  <scstep>
   <time name="dav">    3.22    3.22</time>
   <time name="total">    5.52    5.52</time>
   <energy>
    <i name="e_fr_energy">    -82.27469628 </i>
    <i name="e_wo_entrp">    -82.23866184 </i>
    <i name="e_0_energy">    -82.25667906 </i>
   </energy>
  </scstep>
  <scstep>
   <time name="dav">    3.60    3.60</time>
   <time name="total">    5.55    5.55</time>
   <energy>
    <i name="alphaZ">      1.78070422 </i>
    <i name="ewald">   2172.91233083 </i>
    <i name="hartreedc">  -3284.41552084 </i>
    <i name="XCdc">    133.11694599 </i>
    <i name="pawpsdc">    783.34625093 </i>
    <i name="pawaedc">   -793.33372967 </i>
    <i name="eentropy">     -0.03604163 </i>
    <i name="bandstr">   -498.02261285 </i>
    <i name="atom">   1402.37696792 </i>
    <i name="e_fr_energy">    -82.27470510 </i>
    <i name="e_wo_entrp">    -82.23866347 </i>
    <i name="e_0_energy">    -82.25668429 </i>
   </energy>
  </scstep>
  <structure>
   <crystal>
    <varray name="basis" >
     <v>      15.00000000       0.00000000       0.00000000 </v>
     <v>       0.00000000      15.00000000       0.00000000 </v>
     <v>       0.00000000       0.00000000      15.00000000 </v>
    </varray>
    <i name="volume">   3375.00000000 </i>
    <varray name="rec_basis" >
     <v>       0.06666667       0.00000000       0.00000000 </v>
     <v>       0.00000000       0.06666667       0.00000000 </v>
     <v>       0.00000000       0.00000000       0.06666667 </v>
    </varray>
   </crystal>
   <varray name="positions" >
    <v>       0.43345454       0.35648954       0.49453204 </v>
    <v>       0.60025984       0.35617101       0.49723369 </v>
    <v>       0.68329340       0.49998587       0.49664205 </v>
    <v>       0.60025644       0.64379853       0.49710613 </v>
    <v>       0.43343273       0.64347869       0.49576813 </v>
    <v>       0.30680543       0.49884698       0.55145562 </v>
    <v>       0.31515852       0.49599907       0.42929441 </v>
    <v>       0.42484707       0.49999523       0.49657148 </v>
    <v>       0.47089311       0.41894144       0.49638009 </v>
    <v>       0.56399912       0.41932651       0.49657387 </v>
    <v>       0.61057478       0.49997970       0.49634337 </v>
    <v>       0.56399208       0.58064777       0.49645263 </v>
    <v>       0.47087827       0.58101857       0.49624935 </v>
    <v>       0.33206666       0.50006664       0.49166667 </v>
   </varray>
  </structure>
  <varray name="forces" >
   <v>       0.05506612       0.04675521       0.06518618 </v>
   <v>      -0.04168273       0.03292381      -0.03107643 </v>
   <v>       0.00850756      -0.00085565      -0.00373803 </v>
   <v>      -0.04172609      -0.03185969      -0.02298871 </v>
   <v>       0.04687586      -0.04580516       0.00764145 </v>
   <v>      -2.08388308      -0.11867669       2.66348729 </v>
   <v>      -1.98508055      -0.27481850      -3.16905712 </v>
   <v>       2.82059923       0.03363492       0.26404358 </v>
   <v>      -0.24994928      -0.01828372      -0.10278771 </v>
   <v>      -0.02241036      -0.02564005       0.00868556 </v>
   <v>       0.00500237      -0.00609276       0.07454542 </v>
   <v>      -0.03317339       0.03332772       0.00660115 </v>
   <v>      -0.23864592       0.00769809      -0.00661024 </v>
   <v>       1.76050026       0.36769248       0.24606760 </v>
  </varray>
  <varray name="stress" >
   <v>       1.12142164       0.06799375       0.07685250 </v>
   <v>       0.06799374      -0.95982070       0.07411036 </v>
   <v>       0.07685249       0.07411036       1.64489985 </v>
  </varray>
  <energy>
   <i name="e_fr_energy">    -82.63056395 </i>
   <i name="e_wo_entrp">    -82.61254314 </i>
   <i name="e_0_energy">     -0.03604163 </i>
  </energy>
  <time name="totalsc">   71.12   71.13</time>
 </calculation>
 <calculation>
  <scstep>
   <time name="dav">    3.51    3.51</time>
   <time name="total">    5.77    5.77</time>
   <energy>
    <i name="alphaZ">      1.78070422 </i>
    <i name="ewald">   2172.01170753 </i>
    <i name="hartreedc">  -3283.75626080 </i>
    <i name="XCdc">    133.09942344 </i>
    <i name="pawpsdc">    783.34698134 </i>
    <i name="pawaedc">   -793.33446684 </i>
    <i name="eentropy">     -0.03510264 </i>
    <i name="bandstr">   -497.76242861 </i>
    <i name="atom">   1402.37696792 </i>
    <i name="e_fr_energy">    -82.27247445 </i>
    <i name="e_wo_entrp">    -82.23737181 </i>
    <i name="e_0_energy">    -82.25492313 </i>
   </energy>
  </scstep>
  <scstep>
   <time name="dav">    3.90    3.90</time>
   <time name="total">    6.16    6.16</time>
   <energy>
    <i name="e_fr_energy">    -82.27236015 </i>
    <i name="e_wo_entrp">    -82.23681972 </i>
    <i name="e_0_energy">    -82.25458993 </i>
   </energy>
  </scstep>
  <scstep>
   <time name="dav">    3.50    3.50</time>
   <time name="total">    5.77    5.77</time>
   <energy>
    <i name="e_fr_energy">    -82.27229381 </i>
    <i name="e_wo_entrp">    -82.23624630 </i>
    <i name="e_0_energy">    -82.25427005 </i>
   </energy>
  </scstep>
  <scstep>
   <time name="dav">    4.05    4.05</time>
   <time name="total">    6.32    6.32</time>
   <energy>
    <i name="e_fr_energy">    -82.27228009 </i>
    <i name="e_wo_entrp">    -82.23654724 </i>
    <i name="e_0_energy">    -82.25441367 </i>
   </energy>
  </scstep>
  <scstep>
   <time name="dav">    3.57    3.57</time>
   <time name="total">    5.85    5.85</time>
   <energy>
    <i name="e_fr_energy">    -82.27235414 </i>
    <i name="e_wo_entrp">    -82.23668424 </i>
    <i name="e_0_energy">    -82.25451919 </i>
   </energy>
  </scstep>
  <scstep>
   <time name="dav">    3.77    3.77</time>
   <time name="total">    6.04    6.04</time>
   <energy>
    <i name="e_fr_energy">    -82.27237530 </i>
    <i name="e_wo_entrp">    -82.23669373 </i>
    <i name="e_0_energy">    -82.25453452 </i>
   </energy>
  </scstep>
  <scstep>
   <time name="dav">    3.39    3.39</time>
   <time name="total">    5.67    5.67</time>
   <energy>
    <i name="e_fr_energy">    -82.27238967 </i>
    <i name="e_wo_entrp">    -82.23670284 </i>
    <i name="e_0_energy">    -82.25454626 </i>
   </energy>
  </scstep>
  <scstep>
   <time name="dav">    3.78    3.78</time>
   <time name="total">    5.73    5.73</time>
   <energy>
    <i name="alphaZ">      1.78070422 </i>
    <i name="ewald">   2172.01170753 </i>
    <i name="hartreedc">  -3283.58780257 </i>
    <i name="XCdc">    133.09038326 </i>
    <i name="pawpsdc">    782.82409893 </i>
    <i name="pawaedc">   -792.80895523 </i>
    <i name="eentropy">     -0.03567443 </i>
    <i name="bandstr">   -497.92382459 </i>
    <i name="atom">   1402.37696792 </i>
    <i name="e_fr_energy">    -82.27239498 </i>
    <i name="e_wo_entrp">    -82.23672054 </i>
    <i name="e_0_energy">    -82.25455776 </i>
   </energy>
  </scstep>
  <structure>
   <crystal>
    <varray name="basis" >
     <v>      15.00000000       0.00000000       0.00000000 </v>
     <v>       0.00000000      15.00000000       0.00000000 </v>
     <v>       0.00000000       0.00000000      15.00000000 </v>
    </varray>
    <i name="volume">   3375.00000000 </i>
    <varray name="rec_basis" >
     <v>       0.06666667       0.00000000       0.00000000 </v>
     <v>       0.00000000       0.06666667       0.00000000 </v>
     <v>       0.00000000       0.00000000       0.06666667 </v>
    </varray>
   </crystal>
   <varray name="positions" >
    <v>       0.43345454       0.35648954       0.49586537 </v>
    <v>       0.60159317       0.35617101       0.49723369 </v>
    <v>       0.68329340       0.49998587       0.49664205 </v>
    <v>       0.60025644       0.64379853       0.49710613 </v>
    <v>       0.43343273       0.64347869       0.49576813 </v>
    <v>       0.30680543       0.49884698       0.55145562 </v>
    <v>       0.31515852       0.49599907       0.42929441 </v>
    <v>       0.42484707       0.49999523       0.49657148 </v>
    <v>       0.47089311       0.41894144       0.49638009 </v>
    <v>       0.56399912       0.41932651       0.49657387 </v>
    <v>       0.61057478       0.49997970       0.49634337 </v>
    <v>       0.56399208       0.58064777       0.49645263 </v>
    <v>       0.47087827       0.58101857       0.49624935 </v>
    <v>       0.33206666       0.50006664       0.49166667 </v>
   </varray>
  </structure>
  <varray name="forces" >
   <v>       0.04860267       0.03949935       0.02158985 </v>
   <v>      -0.28405972       0.26418564      -0.02578935 </v>
   <v>       0.00702966      -0.00167604      -0.00396815 </v>
   <v>      -0.04238688      -0.03031167      -0.02069364 </v>
   <v>       0.04681589      -0.04589104       0.00639776 </v>
   <v>      -2.08054897      -0.11638973       2.66053035 </v>
   <v>      -1.98854060      -0.27749855      -3.17377020 </v>
   <v>       2.82845688       0.04223775       0.27274519 </v>
   <v>      -0.22243408      -0.06519720      -0.04438667 </v>
   <v>       0.21023810      -0.23934359       0.00362607 </v>
   <v>      -0.01566829       0.01814511       0.06178574 </v>
   <v>      -0.03231696       0.04099984       0.00691060 </v>
   <v>      -0.23761714       0.00626088      -0.01741057 </v>
   <v>       1.76242945       0.36497924       0.25243300 </v>
  </varray>
  <varray name="stress" >
   <v>       1.02497640       0.17257056       0.07909133 </v>
   <v>       0.17257056      -1.03325183       0.07765663 </v>
   <v>       0.07909133       0.07765664       1.64684342 </v>
  </varray>
  <energy>
   <i name="e_fr_energy">    -82.62816284 </i>
   <i name="e_wo_entrp">    -82.61032563 </i>
   <i name="e_0_energy">     -0.03567443 </i>
  </energy>
  <time name="totalsc">   54.24   54.24</time>
 </calculation>
 <calculation>
  <scstep>
   <time name="dav">    3.88    3.88</time>
   <time name="total">    6.15    6.15</time>
   <energy>
    <i name="alphaZ">      1.78070422 </i>
    <i name="ewald">   2173.84093924 </i>
    <i name="hartreedc">  -3284.90952432 </i>
    <i name="XCdc">    133.12576962 </i>
    <i name="pawpsdc">    782.82351613 </i>
    <i name="pawaedc">   -792.80836220 </i>
    <i name="eentropy">     -0.03755640 </i>
    <i name="bandstr">   -498.46709421 </i>
    <i name="atom">   1402.37696792 </i>
    <i name="e_fr_energy">    -82.27464000 </i>
    <i name="e_wo_entrp">    -82.23708360 </i>
    <i name="e_0_energy">    -82.25586180 </i>
   </energy>
  </scstep>
  <scstep>
   <time name="dav">    3.88    3.88</time>
   <time name="total">    6.15    6.15</time>
   <energy>
    <i name="e_fr_energy">    -82.27364752 </i>
    <i name="e_wo_entrp">    -82.23740391 </i>
    <i name="e_0_energy">    -82.25552571 </i>
   </energy>
  </scstep>
  <scstep>
   <time name="dav">    3.52    3.52</time>
   <time name="total">    5.79    5.79</time>
   <energy>
    <i name="e_fr_energy">    -82.27384004 </i>
    <i name="e_wo_entrp">    -82.23863684 </i>
    <i name="e_0_energy">    -82.25623844 </i>
   </energy>
  </scstep>
  <scstep>
   <time name="dav">    4.08    4.08</time>
   <time name="total">    6.35    6.35</time>
   <energy>
    <i name="e_fr_energy">    -82.27382249 </i>
    <i name="e_wo_entrp">    -82.23782995 </i>
    <i name="e_0_energy">    -82.25582622 </i>
   </energy>
  </scstep>
  <scstep>
   <time name="dav">    3.92    3.92</time>
   <time name="total">    5.87    5.87</time>
   <energy>
    <i name="alphaZ">      1.78070422 </i>
    <i name="ewald">   2173.84093924 </i>
    <i name="hartreedc">  -3285.30653468 </i>
    <i name="XCdc">    133.14602355 </i>
    <i name="pawpsdc">    783.91856776 </i>
    <i name="pawaedc">   -793.90870432 </i>
    <i name="eentropy">     -0.03593585 </i>
    <i name="bandstr">   -498.08584230 </i>
    <i name="atom">   1402.37696792 </i>
    <i name="e_fr_energy">    -82.27381446 </i>
    <i name="e_wo_entrp">    -82.23787861 </i>
    <i name="e_0_energy">    -82.25584654 </i>
   </energy>
  </scstep>
  <structure>
   <crystal>
    <varray name="basis" >
     <v>      15.00000000       0.00000000       0.00000000 </v>
     <v>       0.00000000      15.00000000       0.00000000 </v>
     <v>       0.00000000       0.00000000      15.00000000 </v>
    </varray>
    <i name="volume">   3375.00000000 </i>
    <varray name="rec_basis" >
     <v>       0.06666667       0.00000000       0.00000000 </v>
     <v>       0.00000000       0.06666667       0.00000000 </v>
     <v>       0.00000000       0.00000000       0.06666667 </v>
    </varray>
   </crystal>
   <varray name="positions" >
    <v>       0.43345454       0.35648954       0.49586537 </v>
    <v>       0.59892651       0.35617101       0.49723369 </v>
    <v>       0.68329340       0.49998587       0.49664205 </v>
    <v>       0.60025644       0.64379853       0.49710613 </v>
    <v>       0.43343273       0.64347869       0.49576813 </v>
    <v>       0.30680543       0.49884698       0.55145562 </v>
    <v>       0.31515852       0.49599907       0.42929441 </v>
    <v>       0.42484707       0.49999523       0.49657148 </v>
    <v>       0.47089311       0.41894144       0.49638009 </v>
    <v>       0.56399912       0.41932651       0.49657387 </v>
    <v>       0.61057478       0.49997970       0.49634337 </v>
    <v>       0.56399208       0.58064777       0.49645263 </v>
    <v>       0.47087827       0.58101857       0.49624935 </v>
    <v>       0.33206666       0.50006664       0.49166667 </v>
   </varray>
  </structure>
  <varray name="forces" >
   <v>       0.05272405       0.03830815       0.02164551 </v>
   <v>       0.20162049      -0.21163241      -0.02108583 </v>
   <v>       0.01026743      -0.00025530      -0.00379843 </v>
   <v>      -0.04089199      -0.03340738      -0.02078047 </v>
   <v>       0.04709467      -0.04551388       0.00647979 </v>
   <v>      -2.07984936      -0.11659164       2.65697413 </v>
   <v>      -1.98794465      -0.27750007      -3.16988890 </v>
   <v>       2.81369359       0.03018410       0.27204462 </v>
   <v>      -0.26624641       0.04241127      -0.04457472 </v>
   <v>      -0.25640833       0.20320267      -0.00063929 </v>
   <v>       0.02639962      -0.03513524       0.06213264 </v>
   <v>      -0.03642378       0.02821241       0.00687482 </v>
   <v>      -0.23803281       0.00720383      -0.01743495 </v>
   <v>       1.75399748       0.37051350       0.25205107 </v>
  </varray>
  <varray name="stress" >
   <v>       1.21516126      -0.03506860       0.08148645 </v>
   <v>      -0.03506860      -0.87361928       0.07517171 </v>
   <v>       0.08148645       0.07517171       1.64237480 </v>
  </varray>
  <energy>
   <i name="e_fr_energy">    -82.62976244 </i>
   <i name="e_wo_entrp">    -82.61179451 </i>
   <i name="e_0_energy">     -0.03593585 </i>
  </energy>
  <time name="totalsc">   37.24   37.24</time>
 </calculation>
 <calculation>
  <scstep>
   <time name="dav">    3.70    3.70</time>
   <time name="total">    5.97    5.97</time>
   <energy>
    <i name="alphaZ">      1.78070422 </i>
    <i name="ewald">   2174.44613673 </i>
    <i name="hartreedc">  -3285.71468289 </i>
    <i name="XCdc">    133.15916045 </i>
    <i name="pawpsdc">    783.91707006 </i>
    <i name="pawaedc">   -793.90726831 </i>
    <i name="eentropy">     -0.03631602 </i>
    <i name="bandstr">   -498.29251572 </i>
    <i name="atom">   1402.37696792 </i>
    <i name="e_fr_energy">    -82.27074357 </i>
    <i name="e_wo_entrp">    -82.23442755 </i>
    <i name="e_0_energy">    -82.25258556 </i>
   </energy>
  </scstep>
  <scstep>
   <time name="dav">    4.09    4.09</time>
   <time name="total">    6.36    6.36</time>
   <energy>
    <i name="e_fr_energy">    -82.27064706 </i>
    <i name="e_wo_entrp">    -82.23483839 </i>
    <i name="e_0_energy">    -82.25274273 </i>
   </energy>
  </scstep>
  <scstep>
   <time name="dav">    3.70    3.70</time>
   <time name="total">    5.97    5.97</time>
   <energy>
    <i name="e_fr_energy">    -82.27075396 </i>
    <i name="e_wo_entrp">    -82.23533170 </i>
    <i name="e_0_energy">    -82.25304283 </i>
   </energy>
  </scstep>
  <scstep>
   <time name="dav">    3.70    3.70</time>
   <time name="total">    5.97    5.97</time>
   <energy>
    <i name="e_fr_energy">    -82.27072576 </i>
    <i name="e_wo_entrp">    -82.23497904 </i>
    <i name="e_0_energy">    -82.25285240 </i>
   </energy>
  </scstep>
  <scstep>
   <time name="dav">    3.20    3.20</time>
   <time name="total">    5.47    5.47</time>
   <energy>
    <i name="e_fr_energy">    -82.27070802 </i>
    <i name="e_wo_entrp">    -82.23494481 </i>
    <i name="e_0_energy">    -82.25282641 </i>
   </energy>
  </scstep>
  <scstep>
   <time name="dav">    3.20    3.20</time>
   <time name="total">    5.47    5.47</time>
   <energy>
    <i name="e_fr_energy">    -82.27072121 </i>
    <i name="e_wo_entrp">    -82.23500173 </i>
    <i name="e_0_energy">    -82.25286147 </i>
   </energy>
  </scstep>
  <scstep>
   <time name="dav">    3.39    3.39</time>
   <time name="total">    5.35    5.35</time>
   <energy>
    <i name="alphaZ">      1.78070422 </i>
    <i name="ewald">   2174.44613673 </i>
    <i name="hartreedc">  -3285.83303057 </i>
    <i name="XCdc">    133.16633012 </i>
    <i name="pawpsdc">    784.33212600 </i>
    <i name="pawaedc">   -794.32415083 </i>
    <i name="eentropy">     -0.03571207 </i>
    <i name="bandstr">   -498.18010202 </i>
    <i name="atom">   1402.37696792 </i>
    <i name="e_fr_energy">    -82.27073051 </i>
    <i name="e_wo_entrp">    -82.23501843 </i>
    <i name="e_0_energy">    -82.25287447 </i>
   </energy>
  </scstep>
  <structure>
   <crystal>
    <varray name="basis" >
     <v>      15.00000000       0.00000000       0.00000000 </v>
     <v>       0.00000000      15.00000000       0.00000000 </v>
     <v>       0.00000000       0.00000000      15.00000000 </v>
    </varray>
    <i name="volume">   3375.00000000 </i>
    <varray name="rec_basis" >
     <v>       0.06666667       0.00000000       0.00000000 </v>
     <v>       0.00000000       0.06666667       0.00000000 </v>
     <v>       0.00000000       0.00000000       0.06666667 </v>
    </varray>
   </crystal>
   <varray name="positions" >
    <v>       0.43345454       0.35648954       0.49586537 </v>
    <v>       0.60025984       0.35750435       0.49723369 </v>
    <v>       0.68329340       0.49998587       0.49664205 </v>
    <v>       0.60025644       0.64379853       0.49710613 </v>
    <v>       0.43343273       0.64347869       0.49576813 </v>
    <v>       0.30680543       0.49884698       0.55145562 </v>
    <v>       0.31515852       0.49599907       0.42929441 </v>
    <v>       0.42484707       0.49999523       0.49657148 </v>
    <v>       0.47089311       0.41894144       0.49638009 </v>
    <v>       0.56399912       0.41932651       0.49657387 </v>
    <v>       0.61057478       0.49997970       0.49634337 </v>
    <v>       0.56399208       0.58064777       0.49645263 </v>
    <v>       0.47087827       0.58101857       0.49624935 </v>
    <v>       0.33206666       0.50006664       0.49166667 </v>
   </varray>
  </structure>
  <varray name="forces" >
   <v>       0.05006625       0.03774196       0.02166358 </v>
   <v>       0.21370592      -0.51123120      -0.01903361 </v>
   <v>       0.00889500      -0.00272319      -0.00378857 </v>
   <v>      -0.04319807      -0.02997779      -0.02078086 </v>
   <v>       0.04677315      -0.04580098       0.00642260 </v>
   <v>      -2.08018330      -0.11646998       2.65917167 </v>
   <v>      -1.98787361      -0.27755063      -3.17181327 </v>
   <v>       2.82350081       0.03234304       0.27159404 </v>
   <v>      -0.24058419      -0.01806035      -0.04441062 </v>
   <v>      -0.26242179       0.49018136      -0.00263448 </v>
   <v>      -0.02527767       0.02832260       0.06168241 </v>
   <v>      -0.02501665       0.03997283       0.00687443 </v>
   <v>      -0.23768648       0.00582943      -0.01725940 </v>
   <v>       1.75930065       0.36742289       0.25231208 </v>
  </varray>
  <varray name="stress" >
   <v>       1.17104247      -0.04932975       0.08135781 </v>
   <v>      -0.04932976      -0.69357219       0.07402358 </v>
   <v>       0.08135781       0.07402358       1.64386769 </v>
  </varray>
  <energy>
   <i name="e_fr_energy">    -82.62673764 </i>
   <i name="e_wo_entrp">    -82.60888161 </i>
   <i name="e_0_energy">     -0.03571207 </i>
  </energy>
  <time name="totalsc">   47.48   47.48</time>
 </calculation>
 <calculation>
  <scstep>
   <time name="dav">    4.43    4.43</time>
   <time name="total">    6.70    6.70</time>
   <energy>
    <i name="alphaZ">      1.78070422 </i>
    <i name="ewald">   2171.43660952 </i>
    <i name="hartreedc">  -3283.69613167 </i>
    <i name="XCdc">    133.10420231 </i>
    <i name="pawpsdc">    784.33128651 </i>
    <i name="pawaedc">   -794.32330226 </i>
    <i name="eentropy">     -0.03342369 </i>
    <i name="bandstr">   -497.24917345 </i>
    <i name="atom">   1402.37696792 </i>
    <i name="e_fr_energy">    -82.27226060 </i>
    <i name="e_wo_entrp">    -82.23883691 </i>
    <i name="e_0_energy">    -82.25554875 </i>
   </energy>
  </scstep>
  <scstep>
   <time name="dav">    3.90    3.90</time>
   <time name="total">    6.17    6.17</time>
   <energy>
    <i name="e_fr_energy">    -82.27019797 </i>
    <i name="e_wo_entrp">    -82.23486574 </i>
    <i name="e_0_energy">    -82.25253185 </i>
   </energy>
  </scstep>
  <scstep>
   <time name="dav">    3.68    3.68</time>
   <time name="total">    5.95    5.95</time>
   <energy>
    <i name="e_fr_energy">    -82.26934966 </i>
    <i name="e_wo_entrp">    -82.23250864 </i>
    <i name="e_0_energy">    -82.25092915 </i>
   </energy>
  </scstep>
  <scstep>
   <time name="dav">    3.67    3.67</time>
   <time name="total">    5.94    5.94</time>
   <energy>
    <i name="e_fr_energy">    -82.26944455 </i>
    <i name="e_wo_entrp">    -82.23387815 </i>
    <i name="e_0_energy">    -82.25166135 </i>
   </energy>
  </scstep>
  <scstep>
   <time name="dav">    3.84    3.85</time>
   <time name="total">    6.12    6.12</time>
   <energy>
    <i name="e_fr_energy">    -82.26983977 </i>
    <i name="e_wo_entrp">    -82.23404754 </i>
    <i name="e_0_energy">    -82.25194365 </i>
   </energy>
  </scstep>
  <scstep>
   <time name="dav">    3.89    3.89</time>
   <time name="total">    6.16    6.16</time>
   <energy>
    <i name="e_fr_energy">    -82.26994207 </i>
    <i name="e_wo_entrp">    -82.23406455 </i>
    <i name="e_0_energy">    -82.25200331 </i>
   </energy>
  </scstep>
  <scstep>
   <time name="dav">    3.39    3.39</time>
   <time name="total">    5.67    5.67</time>
   <energy>
    <i name="e_fr_energy">    -82.26997034 </i>
    <i name="e_wo_entrp">    -82.23409840 </i>
    <i name="e_0_energy">    -82.25203437 </i>
   </energy>
  </scstep>
  <scstep>
   <time name="dav">    3.39    3.39</time>
   <time name="total">    5.35    5.35</time>
   <energy>
    <i name="alphaZ">      1.78070422 </i>
    <i name="ewald">   2171.43660952 </i>
    <i name="hartreedc">  -3283.07969003 </i>
    <i name="XCdc">    133.07091480 </i>
    <i name="pawpsdc">    782.45322160 </i>
    <i name="pawaedc">   -792.43653549 </i>
    <i name="eentropy">     -0.03585029 </i>
    <i name="bandstr">   -497.83631877 </i>
    <i name="atom">   1402.37696792 </i>
    <i name="e_fr_energy">    -82.26997653 </i>
    <i name="e_wo_entrp">    -82.23412624 </i>
    <i name="e_0_energy">    -82.25205139 </i>
   </energy>
  </scstep>
  <structure>
   <crystal>
    <varray name="basis" >
     <v>      15.00000000       0.00000000       0.00000000 </v>
     <v>       0.00000000      15.00000000       0.00000000 </v>
     <v>       0.00000000       0.00000000      15.00000000 </v>
    </varray>
    <i name="volume">   3375.00000000 </i>
    <varray name="rec_basis" >
     <v>       0.06666667       0.00000000       0.00000000 </v>
     <v>       0.00000000       0.06666667       0.00000000 </v>
     <v>       0.00000000       0.00000000       0.06666667 </v>
    </varray>
   </crystal>
   <varray name="positions" >
    <v>       0.43345454       0.35648954       0.49586537 </v>
    <v>       0.60025984       0.35483768       0.49723369 </v>
[...]
       <r>    -3.6333     0.0000    18.0000 </r>
       <r>    -3.5185     0.0000    18.0000 </r>
       <r>    -3.4037     0.0000    18.0000 </r>
       <r>    -3.2888     0.0000    18.0000 </r>
       <r>    -3.1740     0.0000    18.0000 </r>
       <r>    -3.0592     0.0000    18.0000 </r>
       <r>    -2.9444     0.0000    18.0000 </r>
       <r>    -2.8295     0.0001    18.0000 </r>
       <r>    -2.7147     0.0025    18.0003 </r>
       <r>    -2.5999     0.0351    18.0043 </r>
       <r>    -2.4851     0.2657    18.0348 </r>
       <r>    -2.3703     1.0738    18.1581 </r>
       <r>    -2.2554     2.3219    18.4247 </r>
       <r>    -2.1406     2.7135    18.7363 </r>
       <r>    -2.0258     1.9107    18.9557 </r>
       <r>    -1.9110     1.7435    19.1559 </r>
       <r>    -1.7962     3.3483    19.5403 </r>
       <r>    -1.6813     5.0687    20.1223 </r>
       <r>    -1.5665     4.5264    20.6421 </r>
       <r>    -1.4517     2.3219    20.9087 </r>
       <r>    -1.3369     0.6756    20.9862 </r>
       <r>    -1.2220     0.1100    20.9989 </r>
       <r>    -1.1072     0.0165    21.0007 </r>
       <r>    -0.9924     0.0800    21.0099 </r>
       <r>    -0.8776     0.5163    21.0692 </r>
       <r>    -0.7628     1.8804    21.2851 </r>
       <r>    -0.6479     3.9657    21.7405 </r>
       <r>    -0.5331     5.0020    22.3148 </r>
       <r>    -0.4183     3.9565    22.7691 </r>
       <r>    -0.3035     2.6182    23.0697 </r>
       <r>    -0.1887     3.1395    23.4302 </r>
       <r>    -0.0738     5.1070    24.0166 </r>
       <r>     0.0410     6.8506    24.8032 </r>
       <r>     0.1558     7.5379    25.6687 </r>
       <r>     0.2706     7.0264    26.4755 </r>
       <r>     0.3855     6.6289    27.2366 </r>
       <r>     0.5003     8.1309    28.1702 </r>
       <r>     0.6151    10.0512    29.3243 </r>
       <r>     0.7299    10.5583    30.5367 </r>
       <r>     0.8447     9.8742    31.6704 </r>
       <r>     0.9596     7.1908    32.4961 </r>
       <r>     1.0744     3.3454    32.8802 </r>
       <r>     1.1892     0.8982    32.9833 </r>
       <r>     1.3040     0.1337    32.9987 </r>
       <r>     1.4188     0.0108    32.9999 </r>
       <r>     1.5337     0.0005    33.0000 </r>
       <r>     1.6485     0.0000    33.0000 </r>
       <r>     1.7633     0.0000    33.0000 </r>
       <r>     1.8781     0.0000    33.0000 </r>
       <r>     1.9930     0.0000    33.0000 </r>
       <r>     2.1078     0.0000    33.0000 </r>
       <r>     2.2226     0.0000    33.0000 </r>
       <r>     2.3374     0.0000    33.0000 </r>
       <r>     2.4522     0.0000    33.0000 </r>
       <r>     2.5671     0.0000    33.0000 </r>
       <r>     2.6819     0.0000    33.0000 </r>
       <r>     2.7967     0.0000    33.0000 </r>
       <r>     2.9115     0.0000    33.0000 </r>
       <r>     3.0264     0.0000    33.0000 </r>
       <r>     3.1412     0.0000    33.0000 </r>
      </set>
      <set comment="spin 2">
       <r>   -31.3053     0.0000     0.0000 </r>
       <r>   -31.1905     0.0000     0.0000 </r>
       <r>   -31.0757     0.0000     0.0000 </r>
       <r>   -30.9608     0.0000     0.0000 </r>
       <r>   -30.8460     0.0000     0.0000 </r>
       <r>   -30.7312     0.0000     0.0000 </r>
       <r>   -30.6164     0.0000     0.0000 </r>
       <r>   -30.5015     0.0000     0.0000 </r>
       <r>   -30.3867     0.0000     0.0000 </r>
       <r>   -30.2719     0.0000     0.0000 </r>
       <r>   -30.1571     0.0000     0.0000 </r>
       <r>   -30.0423     0.0000     0.0000 </r>
       <r>   -29.9274     0.0000     0.0000 </r>
       <r>   -29.8126     0.0000     0.0000 </r>
       <r>   -29.6978     0.0006     0.0001 </r>
       <r>   -29.5830     0.0108     0.0013 </r>
       <r>   -29.4682     0.1106     0.0140 </r>
       <r>   -29.3533     0.6008     0.0830 </r>
       <r>   -29.2385     1.7438     0.2832 </r>
       <r>   -29.1237     2.7092     0.5943 </r>
       <r>   -29.0089     2.2554     0.8533 </r>
       <r>   -28.8940     1.0056     0.9687 </r>
       <r>   -28.7792     0.2397     0.9963 </r>
       <r>   -28.6644     0.0305     0.9998 </r>
       <r>   -28.5496     0.0021     1.0000 </r>
       <r>   -28.4348     0.0001     1.0000 </r>
       <r>   -28.3199     0.0000     1.0000 </r>
       <r>   -28.2051     0.0000     1.0000 </r>
       <r>   -28.0903     0.0000     1.0000 </r>
       <r>   -27.9755     0.0000     1.0000 </r>
       <r>   -27.8606     0.0000     1.0000 </r>
       <r>   -27.7458     0.0000     1.0000 </r>
       <r>   -27.6310     0.0000     1.0000 </r>
       <r>   -27.5162     0.0000     1.0000 </r>
       <r>   -27.4014     0.0000     1.0000 </r>
       <r>   -27.2865     0.0000     1.0000 </r>
       <r>   -27.1717     0.0000     1.0000 </r>
       <r>   -27.0569     0.0000     1.0000 </r>
       <r>   -26.9421     0.0000     1.0000 </r>
       <r>   -26.8273     0.0000     1.0000 </r>
       <r>   -26.7124     0.0000     1.0000 </r>
       <r>   -26.5976     0.0000     1.0000 </r>
       <r>   -26.4828     0.0000     1.0000 </r>
       <r>   -26.3680     0.0000     1.0000 </r>
       <r>   -26.2531     0.0000     1.0000 </r>
       <r>   -26.1383     0.0000     1.0000 </r>
       <r>   -26.0235     0.0000     1.0000 </r>
       <r>   -25.9087     0.0000     1.0000 </r>
       <r>   -25.7939     0.0000     1.0000 </r>
       <r>   -25.6790     0.0000     1.0000 </r>
       <r>   -25.5642     0.0000     1.0000 </r>
       <r>   -25.4494     0.0000     1.0000 </r>
       <r>   -25.3346     0.0000     1.0000 </r>
       <r>   -25.2198     0.0000     1.0000 </r>
       <r>   -25.1049     0.0000     1.0000 </r>
       <r>   -24.9901     0.0000     1.0000 </r>
       <r>   -24.8753     0.0000     1.0000 </r>
       <r>   -24.7605     0.0000     1.0000 </r>
       <r>   -24.6456     0.0000     1.0000 </r>
       <r>   -24.5308     0.0000     1.0000 </r>
       <r>   -24.4160     0.0000     1.0000 </r>
       <r>   -24.3012     0.0000     1.0000 </r>
       <r>   -24.1864     0.0000     1.0000 </r>
       <r>   -24.0715     0.0000     1.0000 </r>
       <r>   -23.9567     0.0000     1.0000 </r>
       <r>   -23.8419     0.0000     1.0000 </r>
       <r>   -23.7271     0.0000     1.0000 </r>
       <r>   -23.6123     0.0000     1.0000 </r>
       <r>   -23.4974     0.0000     1.0000 </r>
       <r>   -23.3826     0.0000     1.0000 </r>
       <r>   -23.2678     0.0000     1.0000 </r>
       <r>   -23.1530     0.0000     1.0000 </r>
       <r>   -23.0381     0.0000     1.0000 </r>
       <r>   -22.9233     0.0000     1.0000 </r>
       <r>   -22.8085     0.0000     1.0000 </r>
       <r>   -22.6937     0.0000     1.0000 </r>
       <r>   -22.5789     0.0000     1.0000 </r>
       <r>   -22.4640     0.0000     1.0000 </r>
       <r>   -22.3492     0.0000     1.0000 </r>
       <r>   -22.2344     0.0001     1.0000 </r>
       <r>   -22.1196     0.0019     1.0002 </r>
       <r>   -22.0048     0.0281     1.0034 </r>
       <r>   -21.8899     0.2259     1.0294 </r>
       <r>   -21.7751     0.9678     1.1405 </r>
       <r>   -21.6603     2.2170     1.3951 </r>
       <r>   -21.5455     2.7201     1.7074 </r>
       <r>   -21.4306     1.7883     1.9127 </r>
       <r>   -21.3158     0.6294     1.9850 </r>
       <r>   -21.2010     0.1183     1.9986 </r>
       <r>   -21.0862     0.0118     1.9999 </r>
       <r>   -20.9714     0.0006     2.0000 </r>
       <r>   -20.8565     0.0000     2.0000 </r>
       <r>   -20.7417     0.0000     2.0000 </r>
       <r>   -20.6269     0.0000     2.0000 </r>
       <r>   -20.5121     0.0000     2.0000 </r>
       <r>   -20.3972     0.0000     2.0000 </r>
       <r>   -20.2824     0.0000     2.0000 </r>
       <r>   -20.1676     0.0000     2.0000 </r>
       <r>   -20.0528     0.0000     2.0000 </r>
       <r>   -19.9380     0.0000     2.0000 </r>
       <r>   -19.8231     0.0000     2.0000 </r>
       <r>   -19.7083     0.0000     2.0000 </r>
       <r>   -19.5935     0.0000     2.0000 </r>
       <r>   -19.4787     0.0005     2.0001 </r>
       <r>   -19.3639     0.0103     2.0012 </r>
       <r>   -19.2490     0.1239     2.0155 </r>
       <r>   -19.1342     0.7971     2.1070 </r>
       <r>   -19.0194     2.7465     2.4223 </r>
       <r>   -18.9046     5.0808     3.0057 </r>
       <r>   -18.7897     5.0530     3.5859 </r>
       <r>   -18.6749     2.7016     3.8961 </r>
       <r>   -18.5601     0.7754     3.9851 </r>
       <r>   -18.4453     0.1192     3.9988 </r>
       <r>   -18.3305     0.0098     3.9999 </r>
       <r>   -18.2156     0.0004     4.0000 </r>
       <r>   -18.1008     0.0000     4.0000 </r>
       <r>   -17.9860     0.0000     4.0000 </r>
       <r>   -17.8712     0.0000     4.0000 </r>
       <r>   -17.7564     0.0000     4.0000 </r>
       <r>   -17.6415     0.0005     4.0001 </r>
       <r>   -17.5267     0.0101     4.0012 </r>
       <r>   -17.4119     0.1046     4.0132 </r>
       <r>   -17.2971     0.5783     4.0796 </r>
       <r>   -17.1822     1.7075     4.2757 </r>
       <r>   -17.0674     2.6990     4.5856 </r>
       <r>   -16.9526     2.2859     4.8481 </r>
       <r>   -16.8378     1.0370     4.9671 </r>
       <r>   -16.7230     0.2515     4.9960 </r>
       <r>   -16.6081     0.0325     4.9997 </r>
       <r>   -16.4933     0.0027     5.0000 </r>
       <r>   -16.3785     0.0090     5.0011 </r>
       <r>   -16.2637     0.0954     5.0120 </r>
       <r>   -16.1489     0.5425     5.0743 </r>
       <r>   -16.0340     1.6486     5.2636 </r>
       <r>   -15.9192     2.6914     5.5726 </r>
       <r>   -15.8044     2.4533     5.8543 </r>
       <r>   -15.6896     1.7209     6.0519 </r>
       <r>   -15.5747     2.0634     6.2889 </r>
       <r>   -15.4599     2.7570     6.6054 </r>
       <r>   -15.3451     2.2166     6.8599 </r>
       <r>   -15.2303     0.9651     6.9708 </r>
       <r>   -15.1155     0.2248     6.9966 </r>
       <r>   -15.0006     0.0279     6.9998 </r>
       <r>   -14.8858     0.0018     7.0000 </r>
       <r>   -14.7710     0.0001     7.0000 </r>
       <r>   -14.6562     0.0000     7.0000 </r>
       <r>   -14.5413     0.0003     7.0000 </r>
       <r>   -14.4265     0.0057     7.0007 </r>
       <r>   -14.3117     0.0679     7.0085 </r>
       <r>   -14.1969     0.4275     7.0576 </r>
       <r>   -14.0821     1.4369     7.2226 </r>
       <r>   -13.9672     2.5841     7.5193 </r>
       <r>   -13.8524     2.4899     7.8052 </r>
       <r>   -13.7376     1.2853     7.9528 </r>
       <r>   -13.6228     0.3549     7.9935 </r>
       <r>   -13.5080     0.0523     7.9995 </r>
       <r>   -13.3931     0.0041     8.0000 </r>
       <r>   -13.2783     0.0002     8.0000 </r>
       <r>   -13.1635     0.0000     8.0000 </r>
       <r>   -13.0487     0.0001     8.0000 </r>
       <r>   -12.9338     0.0022     8.0003 </r>
       <r>   -12.8190     0.0320     8.0039 </r>
       <r>   -12.7042     0.2484     8.0325 </r>
       <r>   -12.5894     1.0290     8.1506 </r>
       <r>   -12.4746     2.2852     8.4130 </r>
       <r>   -12.3597     2.7840     8.7327 </r>
       <r>   -12.2449     2.2063     8.9860 </r>
       <r>   -12.1301     2.1383     9.2315 </r>
       <r>   -12.0153     2.7483     9.5471 </r>
       <r>   -11.9005     2.4171     9.8246 </r>
       <r>   -11.7856     1.1750     9.9595 </r>
       <r>   -11.6708     0.3065     9.9947 </r>
       <r>   -11.5560     0.0432     9.9997 </r>
       <r>   -11.4412     0.0132    10.0012 </r>
       <r>   -11.3263     0.1043    10.0132 </r>
       <r>   -11.2115     0.5768    10.0794 </r>
       <r>   -11.0967     1.7074    10.2754 </r>
       <r>   -10.9819     2.7330    10.5893 </r>
       <r>   -10.8671     2.5520    10.8823 </r>
       <r>   -10.7522     2.1087    11.1244 </r>
       <r>   -10.6374     2.5687    11.4193 </r>
       <r>   -10.5226     2.7199    11.7316 </r>
       <r>   -10.4078     1.6727    11.9237 </r>
       <r>   -10.2930     0.5559    11.9875 </r>
       <r>   -10.1781     0.1001    11.9990 </r>
       <r>   -10.0633     0.0315    12.0026 </r>
       <r>    -9.9485     0.1913    12.0246 </r>
       <r>    -9.8337     0.8924    12.1271 </r>
       <r>    -9.7188     2.3455    12.3964 </r>
       <r>    -9.6040     3.7671    12.8289 </r>
       <r>    -9.4892     4.2250    13.3141 </r>
       <r>    -9.3744     3.6810    13.7367 </r>
       <r>    -9.2596     2.9230    14.0723 </r>
       <r>    -9.1447     2.9072    14.4061 </r>
       <r>    -9.0299     2.8000    14.7276 </r>
       <r>    -8.9151     1.6971    14.9225 </r>
       <r>    -8.8003     0.5879    14.9900 </r>
       <r>    -8.6854     0.2937    15.0237 </r>
       <r>    -8.5706     0.8823    15.1250 </r>
       <r>    -8.4558     2.1133    15.3677 </r>
       <r>    -8.3410     2.7394    15.6822 </r>
       <r>    -8.2262     1.9032    15.9007 </r>
       <r>    -8.1113     0.7079    15.9820 </r>
       <r>    -7.9965     0.1407    15.9982 </r>
       <r>    -7.8817     0.0149    15.9999 </r>
       <r>    -7.7669     0.0008    16.0000 </r>
       <r>    -7.6521     0.0000    16.0000 </r>
       <r>    -7.5372     0.0000    16.0000 </r>
       <r>    -7.4224     0.0000    16.0000 </r>
       <r>    -7.3076     0.0005    16.0001 </r>
       <r>    -7.1928     0.0110    16.0013 </r>
       <r>    -7.0779     0.1303    16.0163 </r>
       <r>    -6.9631     0.8240    16.1109 </r>
       <r>    -6.8483     2.7954    16.4319 </r>
       <r>    -6.7335     5.1018    17.0177 </r>
       <r>    -6.6187     5.0161    17.5936 </r>
       <r>    -6.5038     2.6567    17.8987 </r>
       <r>    -6.3890     0.7569    17.9856 </r>
       <r>    -6.2742     0.1157    17.9989 </r>
       <r>    -6.1594     0.0095    18.0000 </r>
       <r>    -6.0446     0.0004    18.0000 </r>
       <r>    -5.9297     0.0000    18.0000 </r>
       <r>    -5.8149     0.0000    18.0000 </r>
       <r>    -5.7001     0.0000    18.0000 </r>
       <r>    -5.5853     0.0000    18.0000 </r>
       <r>    -5.4704     0.0000    18.0000 </r>
       <r>    -5.3556     0.0000    18.0000 </r>
       <r>    -5.2408     0.0000    18.0000 </r>
       <r>    -5.1260     0.0000    18.0000 </r>
       <r>    -5.0112     0.0000    18.0000 </r>
       <r>    -4.8963     0.0000    18.0000 </r>
       <r>    -4.7815     0.0000    18.0000 </r>
       <r>    -4.6667     0.0000    18.0000 </r>
       <r>    -4.5519     0.0000    18.0000 </r>
       <r>    -4.4371     0.0000    18.0000 </r>
       <r>    -4.3222     0.0000    18.0000 </r>
       <r>    -4.2074     0.0000    18.0000 </r>
       <r>    -4.0926     0.0000    18.0000 </r>
       <r>    -3.9778     0.0000    18.0000 </r>
       <r>    -3.8629     0.0000    18.0000 </r>
       <r>    -3.7481     0.0000    18.0000 </r>
       <r>    -3.6333     0.0000    18.0000 </r>
       <r>    -3.5185     0.0000    18.0000 </r>
       <r>    -3.4037     0.0000    18.0000 </r>
       <r>    -3.2888     0.0000    18.0000 </r>
       <r>    -3.1740     0.0000    18.0000 </r>
       <r>    -3.0592     0.0000    18.0000 </r>
       <r>    -2.9444     0.0000    18.0000 </r>
       <r>    -2.8295     0.0000    18.0000 </r>
       <r>    -2.7147     0.0000    18.0000 </r>
       <r>    -2.5999     0.0000    18.0000 </r>
       <r>    -2.4851     0.0000    18.0000 </r>
       <r>    -2.3703     0.0000    18.0000 </r>
       <r>    -2.2554     0.0001    18.0000 </r>
       <r>    -2.1406     0.0040    18.0005 </r>
       <r>    -2.0258     0.0596    18.0073 </r>
       <r>    -1.9110     0.4704    18.0613 </r>
       <r>    -1.7962     1.9823    18.2889 </r>
       <r>    -1.6813     4.4749    18.8028 </r>
       <r>    -1.5665     5.4266    19.4258 </r>
       <r>    -1.4517     3.5993    19.8391 </r>
       <r>    -1.3369     1.6868    20.0328 </r>
       <r>    -1.2220     1.7246    20.2308 </r>
       <r>    -1.1072     2.6375    20.5337 </r>
       <r>    -0.9924     2.4511    20.8151 </r>
       <r>    -0.8776     1.2353    20.9569 </r>
       <r>    -0.7628     0.3984    21.0027 </r>
       <r>    -0.6479     0.4767    21.0574 </r>
       <r>    -0.5331     1.4443    21.2233 </r>
       <r>    -0.4183     2.5876    21.5204 </r>
       <r>    -0.3035     2.5080    21.8083 </r>
       <r>    -0.1887     1.4632    21.9763 </r>
       <r>    -0.0738     1.2266    22.1172 </r>
       <r>     0.0410     2.4980    22.4040 </r>
       <r>     0.1558     4.6504    22.9380 </r>
       <r>     0.2706     7.2285    23.7680 </r>
       <r>     0.3855     9.2249    24.8272 </r>
       <r>     0.5003     8.8992    25.8490 </r>
       <r>     0.6151     7.4636    26.7060 </r>
       <r>     0.7299     7.6724    27.5869 </r>
       <r>     0.8447     9.3800    28.6640 </r>
       <r>     0.9596    10.3054    29.8473 </r>
       <r>     1.0744    10.2971    31.0296 </r>
       <r>     1.1892     9.0900    32.0733 </r>
       <r>     1.3040     5.5882    32.7150 </r>
       <r>     1.4188     2.0268    32.9477 </r>
       <r>     1.5337     0.4083    32.9946 </r>
       <r>     1.6485     0.0447    32.9997 </r>
       <r>     1.7633     0.0026    33.0000 </r>
       <r>     1.8781     0.0001    33.0000 </r>
       <r>     1.9930     0.0000    33.0000 </r>
       <r>     2.1078     0.0000    33.0000 </r>
       <r>     2.2226     0.0000    33.0000 </r>
       <r>     2.3374     0.0000    33.0000 </r>
       <r>     2.4522     0.0000    33.0000 </r>
       <r>     2.5671     0.0000    33.0000 </r>
       <r>     2.6819     0.0000    33.0000 </r>
       <r>     2.7967     0.0000    33.0000 </r>
       <r>     2.9115     0.0000    33.0000 </r>
       <r>     3.0264     0.0000    33.0000 </r>
       <r>     3.1412     0.0000    33.0000 </r>
      </set>
     </set>
    </array>
   </total>
  </dos>
 </calculation>
 <structure name="finalpos" >
  <crystal>
   <varray name="basis" >
    <v>      15.00000000       0.00000000       0.00000000 </v>
    <v>       0.00000000      15.00000000       0.00000000 </v>
    <v>       0.00000000       0.00000000      15.00000000 </v>
   </varray>
   <i name="volume">   3375.00000000 </i>
   <varray name="rec_basis" >
    <v>       0.06666667       0.00000000       0.00000000 </v>
    <v>       0.00000000       0.06666667       0.00000000 </v>
    <v>       0.00000000       0.00000000       0.06666667 </v>
   </varray>
  </crystal>
  <varray name="positions" >
   <v>       0.43345454       0.35648954       0.49586537 </v>
   <v>       0.60025984       0.35617101       0.49723369 </v>
   <v>       0.68329340       0.49998587       0.49664205 </v>
   <v>       0.60025644       0.64379853       0.49710613 </v>
   <v>       0.43343273       0.64347869       0.49576813 </v>
   <v>       0.30680543       0.49884698       0.55145562 </v>
   <v>       0.31515852       0.49599907       0.42929441 </v>
   <v>       0.42484707       0.49999523       0.49657148 </v>
   <v>       0.47089311       0.41894144       0.49638009 </v>
   <v>       0.56399912       0.41932651       0.49657387 </v>
   <v>       0.61057478       0.49997970       0.49634337 </v>
   <v>       0.56399208       0.58064777       0.49645263 </v>
   <v>       0.47087827       0.58101857       0.49491601 </v>
   <v>       0.33206666       0.50006664       0.49166667 </v>
  </varray>
  <varray name="selective"  type="logical" >
   <v type="logical" >  T  T  T </v>
   <v type="logical" >  T  T  T </v>
   <v type="logical" >  T  T  T </v>
   <v type="logical" >  T  T  T </v>
   <v type="logical" >  T  T  T </v>
   <v type="logical" >  T  T  T </v>
   <v type="logical" >  T  T  T </v>
   <v type="logical" >  T  T  T </v>
   <v type="logical" >  T  T  T </v>
   <v type="logical" >  T  T  T </v>
   <v type="logical" >  T  T  T </v>
   <v type="logical" >  T  T  T </v>
   <v type="logical" >  T  T  T </v>
   <v type="logical" >  F  F  F </v>
  </varray>
  <nose>
   <v>      -3.00000000       0.00000000       0.00010000       0.00010000 </v>
  </nose>
 </structure>
</modeling>
