 vasp.5.4.4.18Apr17-6-g9f103f2a35 (build Jul 11 2022 10:00:19) complex           
 executed on             LinuxGNU date 2024.06.30  21:40:30
 running on    4 total cores
 distrk:  each k-point on    4 cores,    1 groups
 distr:  one band on NCORES_PER_BAND=   4 cores,    1 groups


--------------------------------------------------------------------------------------------------------


 INCAR:
 POTCAR:   PAW_PBE Mo 08Apr2002                   
 POTCAR:    PAW_PBE S 17Jan2003                   
 POTCAR:   PAW_PBE C 08Apr2002                    
 POTCAR:   PAW_PBE H 15Jun2001                    
 POTCAR:   PAW_PBE O 08Apr2002                    
 POTCAR:   PAW_PBE Mo 08Apr2002                   
   VRHFIN =Mo: 4p5s4d                                                           
   LEXCH  = PE                                                                  
   EATOM  =   217.5180 eV,   15.9871 Ry                                         
                                                                                
   TITEL  = PAW_PBE Mo 08Apr2002                                                
   LULTRA =        F    use ultrasoft PP ?                                      
   IUNSCR =        1    unscreen: 0-lin 1-nonlin 2-no                           
   RPACOR =    2.200    partial core radius                                     
   POMASS =   95.940; ZVAL   =    6.000    mass and valenz                      
   RCORE  =    2.750    outmost cutoff radius                                   
   RWIGS  =    2.750; RWIGS  =    1.455    wigner-seitz radius (au A)           
   ENMAX  =  224.584; ENMIN  =  168.438 eV                                      
   RCLOC  =    2.111    cutoff for local pot                                    
   LCOR   =        T    correct aug charges                                     
   LPAW   =        T    paw PP                                                  
   EAUG   =  345.278                                                            
   DEXC   =    -.088                                                            
   RMAX   =    3.077    core radius for proj-oper                               
   RAUG   =    1.300    factor for augmentation sphere                          
   RDEP   =    2.815    radius for radial grids                                 
   QCUT   =   -4.063; QGAM   =    8.126    optimization parameters              
                                                                                
   Description                                                                  
     l     E      TYP  RCUT    TYP  RCUT                                        
     2   .000     23  2.500                                                     
     2   .000     23  2.500                                                     
     0   .000     23  2.600                                                     
     0  1.000     23  2.600                                                     
     1   .400     23  2.750                                                     
     1  2.000     23  2.750                                                     
     3   .000      7   .000                                                     
  local pseudopotential read in
  partial core-charges read in
  atomic valenz-charges read in
  non local Contribution for L=           2  read in
    real space projection operators read in
  non local Contribution for L=           2  read in
    real space projection operators read in
  non local Contribution for L=           0  read in
    real space projection operators read in
  non local Contribution for L=           0  read in
    real space projection operators read in
  non local Contribution for L=           1  read in
    real space projection operators read in
  non local Contribution for L=           1  read in
    real space projection operators read in
    PAW grid and wavefunctions read in

   number of l-projection  operators is LMAX  =           6
   number of lm-projection operators is LMMAX =          18

 POTCAR:    PAW_PBE S 17Jan2003                   
   VRHFIN =S : s2p4                                                             
   LEXCH  = PE                                                                  
   EATOM  =   276.8230 eV,   20.3459 Ry                                         
                                                                                
   TITEL  = PAW_PBE S 17Jan2003                                                 
   LULTRA =        F    use ultrasoft PP ?                                      
   IUNSCR =        1    unscreen: 0-lin 1-nonlin 2-no                           
   RPACOR =    1.500    partial core radius                                     
   POMASS =   32.066; ZVAL   =    6.000    mass and valenz                      
   RCORE  =    1.900    outmost cutoff radius                                   
   RWIGS  =    2.200; RWIGS  =    1.164    wigner-seitz radius (au A)           
   ENMAX  =  280.000; ENMIN  =  194.016 eV                                      
   ICORE  =        2    local potential                                         
   LCOR   =        T    correct aug charges                                     
   LPAW   =        T    paw PP                                                  
   EAUG   =  335.092                                                            
   DEXC   =     .000                                                            
   RMAX   =    2.867    core radius for proj-oper                               
   RAUG   =    1.300    factor for augmentation sphere                          
   RDEP   =    1.954    radius for radial grids                                 
   QCUT   =   -4.360; QGAM   =    8.721    optimization parameters              
                                                                                
   Description                                                                  
     l     E      TYP  RCUT    TYP  RCUT                                        
     0   .000     23  1.900                                                     
     0   .000     23  1.900                                                     
     1   .000     23  1.900                                                     
     1   .000     23  1.900                                                     
     2   .000     23  1.900                                                     
  local pseudopotential read in
  partial core-charges read in
  atomic valenz-charges read in
  non local Contribution for L=           0  read in
    real space projection operators read in
  non local Contribution for L=           0  read in
    real space projection operators read in
  non local Contribution for L=           1  read in
    real space projection operators read in
  non local Contribution for L=           1  read in
    real space projection operators read in
    PAW grid and wavefunctions read in

   number of l-projection  operators is LMAX  =           4
   number of lm-projection operators is LMMAX =           8

 POTCAR:   PAW_PBE C 08Apr2002                    
   VRHFIN =C: s2p2                                                              
   LEXCH  = PE                                                                  
   EATOM  =   147.1560 eV,   10.8157 Ry                                         
                                                                                
   TITEL  = PAW_PBE C 08Apr2002                                                 
   LULTRA =        F    use ultrasoft PP ?                                      
   IUNSCR =        0    unscreen: 0-lin 1-nonlin 2-no                           
   RPACOR =     .000    partial core radius                                     
   POMASS =   12.011; ZVAL   =    4.000    mass and valenz                      
   RCORE  =    1.500    outmost cutoff radius                                   
   RWIGS  =    1.630; RWIGS  =     .863    wigner-seitz radius (au A)           
   ENMAX  =  400.000; ENMIN  =  300.000 eV                                      
   ICORE  =        2    local potential                                         
   LCOR   =        T    correct aug charges                                     
   LPAW   =        T    paw PP                                                  
   EAUG   =  644.873                                                            
   DEXC   =     .000                                                            
   RMAX   =    2.266    core radius for proj-oper                               
   RAUG   =    1.300    factor for augmentation sphere                          
   RDEP   =    1.501    radius for radial grids                                 
   RDEPT  =    1.300    core radius for aug-charge                              
   QCUT   =   -5.516; QGAM   =   11.032    optimization parameters              
                                                                                
   Description                                                                  
     l     E      TYP  RCUT    TYP  RCUT                                        
     0   .000     23  1.200                                                     
     0   .000     23  1.200                                                     
     1   .000     23  1.500                                                     
     1  2.500     23  1.500                                                     
     2   .000      7  1.500                                                     
  local pseudopotential read in
  atomic valenz-charges read in
  non local Contribution for L=           0  read in
    real space projection operators read in
  non local Contribution for L=           0  read in
    real space projection operators read in
  non local Contribution for L=           1  read in
    real space projection operators read in
  non local Contribution for L=           1  read in
    real space projection operators read in
    PAW grid and wavefunctions read in

   number of l-projection  operators is LMAX  =           4
   number of lm-projection operators is LMMAX =           8

 POTCAR:   PAW_PBE H 15Jun2001                    
   VRHFIN =H: ultrasoft test                                                    
   LEXCH  = PE                                                                  
   EATOM  =    12.4884 eV,     .9179 Ry                                         
                                                                                
   TITEL  = PAW_PBE H 15Jun2001                                                 
   LULTRA =        F    use ultrasoft PP ?                                      
   IUNSCR =        0    unscreen: 0-lin 1-nonlin 2-no                           
   RPACOR =     .000    partial core radius                                     
   POMASS =    1.000; ZVAL   =    1.000    mass and valenz                      
   RCORE  =    1.100    outmost cutoff radius                                   
   RWIGS  =     .700; RWIGS  =     .370    wigner-seitz radius (au A)           
   ENMAX  =  250.000; ENMIN  =  200.000 eV                                      
   RCLOC  =     .701    cutoff for local pot                                    
   LCOR   =        T    correct aug charges                                     
   LPAW   =        T    paw PP                                                  
   EAUG   =  400.000                                                            
   RMAX   =    2.174    core radius for proj-oper                               
   RAUG   =    1.200    factor for augmentation sphere                          
   RDEP   =    1.112    radius for radial grids                                 
   QCUT   =   -5.749; QGAM   =   11.498    optimization parameters              
                                                                                
   Description                                                                  
     l     E      TYP  RCUT    TYP  RCUT                                        
     0   .000     23  1.100                                                     
     0   .500     23  1.100                                                     
     1  -.300     23  1.100                                                     
  local pseudopotential read in
  atomic valenz-charges read in
  non local Contribution for L=           0  read in
    real space projection operators read in
  non local Contribution for L=           0  read in
    real space projection operators read in
  non local Contribution for L=           1  read in
    real space projection operators read in
    PAW grid and wavefunctions read in

   number of l-projection  operators is LMAX  =           3
   number of lm-projection operators is LMMAX =           5

 POTCAR:   PAW_PBE O 08Apr2002                    
   VRHFIN =O: s2p4                                                              
   LEXCH  = PE                                                                  
   EATOM  =   432.3788 eV,   31.7789 Ry                                         
                                                                                
   TITEL  = PAW_PBE O 08Apr2002                                                 
   LULTRA =        F    use ultrasoft PP ?                                      
   IUNSCR =        0    unscreen: 0-lin 1-nonlin 2-no                           
   RPACOR =     .000    partial core radius                                     
   POMASS =   16.000; ZVAL   =    6.000    mass and valenz                      
   RCORE  =    1.520    outmost cutoff radius                                   
   RWIGS  =    1.550; RWIGS  =     .820    wigner-seitz radius (au A)           
   ENMAX  =  400.000; ENMIN  =  300.000 eV                                      
   ICORE  =        2    local potential                                         
   LCOR   =        T    correct aug charges                                     
   LPAW   =        T    paw PP                                                  
   EAUG   =  605.392                                                            
   DEXC   =     .000                                                            
   RMAX   =    2.264    core radius for proj-oper                               
   RAUG   =    1.300    factor for augmentation sphere                          
   RDEP   =    1.550    radius for radial grids                                 
   QCUT   =   -5.520; QGAM   =   11.041    optimization parameters              
                                                                                
   Description                                                                  
     l     E      TYP  RCUT    TYP  RCUT                                        
     0   .000     23  1.200                                                     
     0  -.700     23  1.200                                                     
     1   .000     23  1.520                                                     
     1   .600     23  1.520                                                     
     2   .000      7  1.500                                                     
  local pseudopotential read in
  atomic valenz-charges read in
  non local Contribution for L=           0  read in
    real space projection operators read in
  non local Contribution for L=           0  read in
    real space projection operators read in
  non local Contribution for L=           1  read in
    real space projection operators read in
  non local Contribution for L=           1  read in
    real space projection operators read in
    PAW grid and wavefunctions read in

   number of l-projection  operators is LMAX  =           4
   number of lm-projection operators is LMMAX =           8

 Optimization of the real space projectors (new method)

 maximal supplied QI-value         = 13.61
 optimisation between [QCUT,QGAM] = [ 10.20, 20.41] = [ 29.16,116.64] Ry 
 Optimized for a Real-space Cutoff    1.55 Angstroem

   l    n(q)    QCUT    max X(q) W(low)/X(q) W(high)/X(q)  e(spline) 
   2      9    10.205     3.671    0.25E-04    0.16E-05    0.51E-07
   2      9    10.205    29.382    0.50E-03    0.10E-02    0.77E-06
   0      9    10.205    26.379    0.99E-05    0.67E-05    0.19E-07
   0      9    10.205    49.709    0.55E-04    0.43E-04    0.15E-06
   1      9    10.205     7.852    0.25E-04    0.64E-04    0.44E-07
   1      9    10.205    10.693    0.26E-03    0.25E-03    0.25E-06
 Optimization of the real space projectors (new method)

 maximal supplied QI-value         = 19.84
 optimisation between [QCUT,QGAM] = [ 10.12, 20.44] = [ 28.68,116.96] Ry 
 Optimized for a Real-space Cutoff    1.23 Angstroem

   l    n(q)    QCUT    max X(q) W(low)/X(q) W(high)/X(q)  e(spline) 
   0      7    10.119     5.487    0.26E-04    0.13E-04    0.41E-08
   0      7    10.119    85.627    0.61E-04    0.28E-03    0.52E-07
   1      7    10.119     3.530    0.28E-04    0.18E-04    0.15E-07
   1      7    10.119    42.714    0.44E-03    0.62E-03    0.12E-06
 Optimization of the real space projectors (new method)

 maximal supplied QI-value         = 25.13
 optimisation between [QCUT,QGAM] = [ 10.05, 20.36] = [ 28.30,116.06] Ry 
 Optimized for a Real-space Cutoff    1.30 Angstroem

   l    n(q)    QCUT    max X(q) W(low)/X(q) W(high)/X(q)  e(spline) 
   0      8    10.053     5.582    0.43E-04    0.44E-04    0.61E-07
   0      8    10.053    69.432    0.49E-03    0.71E-03    0.18E-06
   1      7    10.053     2.780    0.78E-04    0.13E-03    0.11E-06
   1      7    10.053     4.549    0.23E-03    0.19E-03    0.20E-06
 Optimization of the real space projectors (new method)

 maximal supplied QI-value         = 34.20
 optimisation between [QCUT,QGAM] = [  9.92, 20.18] = [ 27.55,114.04] Ry 
 Optimized for a Real-space Cutoff    1.26 Angstroem

   l    n(q)    QCUT    max X(q) W(low)/X(q) W(high)/X(q)  e(spline) 
   0      8     9.919     4.436    0.80E-04    0.66E-04    0.52E-07
   0      8     9.919    16.131    0.48E-03    0.23E-03    0.28E-06
   1      7     9.919     4.654    0.17E-03    0.75E-03    0.30E-06
 Optimization of the real space projectors (new method)

 maximal supplied QI-value         = 24.76
 optimisation between [QCUT,QGAM] = [ 10.15, 20.30] = [ 28.85,115.39] Ry 
 Optimized for a Real-space Cutoff    1.30 Angstroem

   l    n(q)    QCUT    max X(q) W(low)/X(q) W(high)/X(q)  e(spline) 
   0      8    10.150     4.192    0.55E-04    0.58E-04    0.78E-07
   0      8    10.150     8.473    0.46E-03    0.68E-03    0.23E-06
   1      7    10.150     2.474    0.11E-03    0.93E-04    0.33E-07
   1      7    10.150     3.912    0.46E-03    0.50E-03    0.15E-06
 PAW_PBE Mo 08Apr2002                   :
 energy of atom  1       EATOM= -217.5180
 kinetic energy error for atom=    0.0025 (will be added to EATOM!!)
  PAW_PBE S 17Jan2003                   :
 energy of atom  2       EATOM= -276.8230
 kinetic energy error for atom=    0.0046 (will be added to EATOM!!)
 PAW_PBE C 08Apr2002                    :
 energy of atom  3       EATOM= -147.1560
 kinetic energy error for atom=    0.0288 (will be added to EATOM!!)
 PAW_PBE H 15Jun2001                    :
 energy of atom  4       EATOM=  -12.4884
 kinetic energy error for atom=    0.0098 (will be added to EATOM!!)
 PAW_PBE O 08Apr2002                    :
 energy of atom  5       EATOM= -432.3788
 kinetic energy error for atom=    0.1156 (will be added to EATOM!!)


 POSCAR: PDB File                                
  positions in direct lattice
  velocities in cartesian coordinates
 exchange correlation table for  LEXCH =        8
   RHO(1)=    0.500       N(1)  =     2000
   RHO(2)=  100.500       N(2)  =     4000



--------------------------------------------------------------------------------------------------------


 ion  position               nearest neighbor table
   1  0.083  0.084  0.260-  34 2.41  33 2.41  50 2.41  49 2.41  37 2.41  53 2.42   2 3.16   4 3.16
                             5 3.17  13 3.17   8 3.17  14 3.17
   2  0.333  0.084  0.260-  50 2.41  34 2.41  35 2.41  51 2.41  38 2.41  54 2.41   1 3.16   3 3.16
                            14 3.17   6 3.17   5 3.17  15 3.17
   3  0.583  0.084  0.260-  51 2.41  35 2.41  36 2.41  52 2.41  39 2.41  55 2.42   2 3.16   4 3.16
                             6 3.17  15 3.17   7 3.17  16 3.17
   4  0.833  0.084  0.260-  33 2.41  36 2.41  52 2.41  49 2.41  40 2.41  56 2.42   1 3.16   3 3.16
                             8 3.17  16 3.17   7 3.17  13 3.17
   5  0.083  0.334  0.260-  37 2.41  38 2.41  53 2.41  54 2.41  41 2.41  57 2.42   8 3.16   6 3.16
                            12 3.17   1 3.17   9 3.17   2 3.17
   6  0.333  0.334  0.260-  39 2.41  54 2.41  38 2.41  55 2.41  42 2.41  58 2.42   7 3.16   5 3.16
                            10 3.17   3 3.17   9 3.17   2 3.17
   7  0.583  0.334  0.260-  40 2.41  39 2.41  55 2.41  56 2.41  43 2.41  59 2.42   6 3.16   8 3.16
                            10 3.17  11 3.17   4 3.17   3 3.17
   8  0.833  0.334  0.260-  40 2.41  53 2.41  37 2.41  56 2.41  44 2.41  60 2.42   5 3.16   7 3.16
                            11 3.17   4 3.17  12 3.17   1 3.17
   9  0.083  0.584  0.260-  41 2.41  42 2.41  57 2.41  58 2.41  45 2.41  61 2.42  10 3.16  12 3.16
                            16 3.17   5 3.17   6 3.17  13 3.17
  10  0.333  0.584  0.260-  42 2.41  59 2.41  43 2.41  58 2.41  46 2.41  62 2.41   9 3.16  11 3.16
                             6 3.17  13 3.17   7 3.17  14 3.17
  11  0.583  0.584  0.260-  59 2.41  63 2.41  44 2.41  43 2.41  60 2.41  47 2.41  12 3.16  10 3.16
                             8 3.17  15 3.17   7 3.17  14 3.17
  12  0.833  0.584  0.260-  60 2.41  44 2.41  41 2.41  57 2.41  48 2.41  64 2.42  11 3.16   9 3.16
                             5 3.17   8 3.17  15 3.17  16 3.17
  13  0.083  0.834  0.260-  46 2.41  61 2.41  45 2.41  62 2.41  33 2.41  49 2.41  14 3.16  16 3.16
                            10 3.17   1 3.17   9 3.17   4 3.17
  14  0.333  0.834  0.260-  63 2.41  62 2.41  46 2.41  47 2.41  34 2.41  50 2.42  13 3.16  15 3.16
                             2 3.17  10 3.17  11 3.17   1 3.17
  15  0.583  0.834  0.260-  63 2.41  47 2.41  48 2.41  64 2.41  35 2.41  51 2.42  14 3.16  16 3.16
                            11 3.17   3 3.17  12 3.17   2 3.17
  16  0.833  0.834  0.260-  45 2.41  48 2.41  64 2.41  61 2.41  36 2.41  52 2.42  13 3.16  15 3.16
                             9 3.17   4 3.17  12 3.17   3 3.17
  17  0.000  0.000  0.053-  68 2.41  84 2.41  65 2.41  81 2.41  77 2.41  93 2.41  18 3.16  20 3.16
                            24 3.17  29 3.17  21 3.17  30 3.17
  18  0.250  0.000  0.053-  65 2.41  81 2.41  66 2.41  82 2.41  78 2.41  94 2.41  17 3.16  19 3.16
                            21 3.17  30 3.17  22 3.17  31 3.17
  19  0.500  0.000  0.053-  67 2.41  83 2.41  66 2.41  82 2.41  79 2.41  95 2.41  20 3.16  18 3.16
                            23 3.17  31 3.17  22 3.17  32 3.17
  20  0.750  0.000  0.053-  67 2.41  68 2.41  83 2.41  84 2.41  80 2.41  96 2.41  19 3.16  17 3.16
                            32 3.17  23 3.17  24 3.17  29 3.17
  21  0.000  0.250  0.053-  69 2.41  85 2.41  72 2.41  88 2.41  65 2.41  81 2.41  22 3.16  24 3.16
                            25 3.17  18 3.17  17 3.17  28 3.17
  22  0.250  0.250  0.053-  70 2.41  69 2.41  86 2.41  85 2.41  66 2.41  82 2.41  23 3.16  21 3.16
                            19 3.17  26 3.17  18 3.17  25 3.17
  23  0.500  0.250  0.053-  70 2.41  86 2.41  71 2.41  87 2.41  67 2.41  83 2.41  22 3.16  24 3.16
                            26 3.17  19 3.17  20 3.17  27 3.17
  24  0.750  0.250  0.053-  72 2.41  88 2.41  71 2.41  87 2.41  68 2.41  84 2.41  21 3.16  23 3.16
                            28 3.17  17 3.17  27 3.17  20 3.17
  25  0.000  0.500  0.053-  76 2.41  92 2.41  73 2.41  89 2.41  69 2.41  85 2.41  28 3.16  26 3.16
                            21 3.17  32 3.17  29 3.17  22 3.17
  26  0.250  0.500  0.053-  74 2.41  90 2.41  73 2.41  89 2.41  70 2.41  86 2.41  27 3.16  25 3.16
                            23 3.17  30 3.17  22 3.17  29 3.17
  27  0.500  0.500  0.053-  75 2.41  74 2.41  91 2.41  90 2.41  71 2.41  87 2.41  28 3.16  26 3.16
                            24 3.17  31 3.17  23 3.17  30 3.17
  28  0.750  0.500  0.053-  75 2.41  91 2.41  76 2.41  92 2.41  72 2.41  88 2.41  27 3.16  25 3.16
                            24 3.17  31 3.17  32 3.17  21 3.17
  29  0.000  0.750  0.053-  80 2.41  96 2.41  77 2.41  93 2.41  73 2.41  89 2.41  30 3.16  32 3.16
                            17 3.17  25 3.17  26 3.17  20 3.17
  30  0.250  0.750  0.053-  77 2.41  93 2.41  78 2.41  94 2.41  74 2.41  90 2.41  29 3.16  31 3.16
                            26 3.17  18 3.17  27 3.17  17 3.17
  31  0.500  0.750  0.053-  79 2.41  95 2.41  78 2.41  94 2.41  75 2.41  91 2.41  32 3.16  30 3.16
                            28 3.17  19 3.17  27 3.17  18 3.17
  32  0.750  0.750  0.053-  79 2.41  80 2.41  95 2.41  96 2.41  76 2.41  92 2.41  31 3.16  29 3.16
                            25 3.17  20 3.17  28 3.17  19 3.17
  33  1.000  0.000  0.207-   4 2.41   1 2.41  13 2.41
  34  0.250  0.000  0.207-   1 2.41   2 2.41  14 2.41
  35  0.500  0.000  0.207-   3 2.41   2 2.41  15 2.41
  36  0.750  0.000  0.207-   4 2.41   3 2.41  16 2.41
  37  1.000  0.250  0.207-   5 2.41   8 2.41   1 2.41
  38  0.250  0.250  0.207-   6 2.41   5 2.41   2 2.41
  39  0.500  0.250  0.207-   6 2.41   7 2.41   3 2.41
  40  0.750  0.250  0.207-   8 2.41   7 2.41   4 2.41
  41  1.000  0.500  0.207-   9 2.41  12 2.41   5 2.41
  42  0.250  0.500  0.207-  10 2.41   9 2.41   6 2.41
  43  0.500  0.500  0.207-  11 2.41  10 2.41   7 2.41
  44  0.750  0.500  0.207-  11 2.41  12 2.41   8 2.41
  45  1.000  0.750  0.207-  16 2.41  13 2.41   9 2.41
  46  0.250  0.750  0.207-  13 2.41  14 2.41  10 2.41
  47  0.500  0.750  0.207-  15 2.41  14 2.41  11 2.41
  48  0.750  0.750  0.207-  15 2.41  16 2.41  12 2.41
  49  1.000  0.000  0.312-   1 2.41   4 2.41  13 2.41
  50  0.250  0.000  0.312-   2 2.41   1 2.41  14 2.42
  51  0.500  0.000  0.312-   3 2.41   2 2.41  15 2.42
  52  0.750  0.000  0.312-   4 2.41   3 2.41  16 2.42
  53  1.000  0.250  0.312-   8 2.41   5 2.41   1 2.42
  54  0.250  0.250  0.312-   6 2.41   5 2.41   2 2.41
  55  0.500  0.250  0.312-   7 2.41   6 2.41   3 2.42
  56  0.750  0.250  0.312-   7 2.41   8 2.41   4 2.42
  57  1.000  0.500  0.312-  12 2.41   9 2.41   5 2.42
  58  0.250  0.500  0.312-  10 2.41   9 2.41   6 2.42
  59  0.500  0.501  0.312-  11 2.41  10 2.41   7 2.42
  60  0.750  0.500  0.312-  12 2.41  11 2.41   8 2.42
  61  0.000  0.750  0.312-  13 2.41  16 2.41   9 2.42
  62  0.250  0.750  0.312-  14 2.41  13 2.41  10 2.41
  63  0.500  0.750  0.312-  15 2.41  14 2.41  11 2.41
  64  0.750  0.750  0.312-  16 2.41  15 2.41  12 2.42
  65  0.083  0.084  0.001-  18 2.41  17 2.41  21 2.41
  66  0.333  0.084  0.001-  19 2.41  18 2.41  22 2.41
  67  0.583  0.084  0.001-  19 2.41  20 2.41  23 2.41
  68  0.833  0.084  0.001-  17 2.41  20 2.41  24 2.41
  69  0.083  0.334  0.001-  21 2.41  22 2.41  25 2.41
  70  0.333  0.334  0.001-  23 2.41  22 2.41  26 2.41
  71  0.583  0.334  0.001-  24 2.41  23 2.41  27 2.41
  72  0.833  0.334  0.001-  24 2.41  21 2.41  28 2.41
  73  0.083  0.583  0.001-  26 2.41  25 2.41  29 2.41
  74  0.333  0.583  0.001-  26 2.41  27 2.41  30 2.41
  75  0.583  0.583  0.001-  28 2.41  27 2.41  31 2.41
  76  0.833  0.583  0.001-  25 2.41  28 2.41  32 2.41
  77  0.083  0.833  0.001-  30 2.41  29 2.41  17 2.41
  78  0.333  0.833  0.001-  31 2.41  30 2.41  18 2.41
  79  0.583  0.833  0.001-  31 2.41  32 2.41  19 2.41
  80  0.833  0.833  0.001-  29 2.41  32 2.41  20 2.41
  81  0.083  0.084  0.106-  18 2.41  17 2.41  21 2.41
  82  0.333  0.084  0.106-  19 2.41  18 2.41  22 2.41
  83  0.583  0.084  0.106-  19 2.41  20 2.41  23 2.41
  84  0.833  0.084  0.106-  17 2.41  20 2.41  24 2.41
  85  0.083  0.334  0.106-  21 2.41  22 2.41  25 2.41
  86  0.333  0.334  0.106-  23 2.41  22 2.41  26 2.41
  87  0.583  0.334  0.106-  24 2.41  23 2.41  27 2.41
  88  0.833  0.334  0.106-  24 2.41  21 2.41  28 2.41
  89  0.083  0.583  0.106-  26 2.41  25 2.41  29 2.41
  90  0.333  0.583  0.106-  26 2.41  27 2.41  30 2.41
  91  0.583  0.583  0.106-  28 2.41  27 2.41  31 2.41
  92  0.833  0.583  0.106-  25 2.41  28 2.41  32 2.41
  93  0.083  0.833  0.106-  30 2.41  29 2.41  17 2.41
  94  0.333  0.833  0.106-  31 2.41  30 2.41  18 2.41
  95  0.583  0.833  0.106-  31 2.41  32 2.41  19 2.41
  96  0.833  0.833  0.106-  29 2.41  32 2.41  20 2.41
  97  0.559  0.371  0.415- 110 1.40 102 1.40  98 1.40
  98  0.626  0.432  0.414- 103 1.09  99 1.40  97 1.40
  99  0.564  0.559  0.412- 104 1.09  98 1.40 100 1.40
 100  0.437  0.624  0.412- 105 1.09  99 1.40 101 1.40
 101  0.371  0.563  0.413- 106 1.09 102 1.40 100 1.40
 102  0.432  0.436  0.415- 107 1.09 101 1.40  97 1.40
 103  0.725  0.379  0.414-  98 1.09
 104  0.616  0.606  0.411-  99 1.09
 105  0.389  0.723  0.410- 100 1.09
 106  0.271  0.614  0.412- 101 1.09
 107  0.382  0.386  0.415- 102 1.09
 108  0.636  0.214  0.446- 110 0.97
 109  0.639  0.207  0.387- 110 0.94
 110  0.620  0.244  0.415- 109 0.94 108 0.97  97 1.40

  LATTYP: Found a simple monoclinic cell.
 ALAT       =    21.9174879775
 B/A-ratio  =     1.3687699991
 C/A-ratio  =     1.5263332705
 COS(beta)  =    -0.9818492968
  
  Lattice vectors:
  
 A1 = ( -18.9546301690, -11.0044661115,   0.0000000000)
 A2 = (   0.0000000000,   0.0000000000, -30.0000000000)
 A3 = (  31.5916302529,  11.0044661115,   0.0000000000)


Analysis of symmetry for initial positions (statically):
=====================================================================
 Subroutine PRICEL returns:
 Original cell was already a primitive cell.
 

 Routine SETGRP: Setting up the symmetry group for a 
 simple monoclinic supercell.


 Subroutine GETGRP returns: Found  1 space group operations
 (whereof  1 operations were pure point group operations)
 out of a pool of  4 trial point group operations.


The static configuration has the point symmetry C_1 .


Analysis of symmetry for dynamics (positions and initial velocities):
=====================================================================
 Subroutine PRICEL returns:
 Original cell was already a primitive cell.
 

 Routine SETGRP: Setting up the symmetry group for a 
 simple monoclinic supercell.


 Subroutine GETGRP returns: Found  1 space group operations
 (whereof  1 operations were pure point group operations)
 out of a pool of  4 trial point group operations.


The dynamic configuration has the point symmetry C_1 .


Analysis of constrained symmetry for selective dynamics:
=====================================================================
 Subroutine PRICEL returns:
 Original cell was already a primitive cell.
 

 Routine SETGRP: Setting up the symmetry group for a 
 simple monoclinic supercell.


 Subroutine GETGRP returns: Found  1 space group operations
 (whereof  1 operations were pure point group operations)
 out of a pool of  4 trial point group operations.


The constrained configuration has the point symmetry C_1 .


Analysis of structural, dynamic, and magnetic symmetry:
=====================================================================
 Subroutine PRICEL returns:
 Original cell was already a primitive cell.
 

 Routine SETGRP: Setting up the symmetry group for a 
 simple monoclinic supercell.


 Subroutine GETGRP returns: Found  1 space group operations
 (whereof  1 operations were pure point group operations)
 out of a pool of  4 trial point group operations.


The magnetic configuration has the point symmetry C_1 .


 Subroutine INISYM returns: Found  1 space group operations
 (whereof  1 operations are pure point group operations),
 and found     1 'primitive' translations



 KPOINTS: Gamma point only                        

Automatic generation of k-mesh.
Space group operators:
 irot       det(A)        alpha          n_x          n_y          n_z        tau_x        tau_y        tau_z
    1     1.000000     0.000000     1.000000     0.000000     0.000000     0.000000     0.000000     0.000000
 
 Subroutine IBZKPT returns following result:
 ===========================================
 
 Found      5 irreducible k-points:
 
 Following reciprocal coordinates:
            Coordinates               Weight
  0.000000  0.000000  0.000000      1.000000
  0.333333  0.000000  0.000000      2.000000
  0.000000  0.333333  0.000000      2.000000
  0.333333  0.333333  0.000000      2.000000
 -0.333333  0.333333  0.000000      2.000000
 
 Following cartesian coordinates:
            Coordinates               Weight
  0.000000  0.000000  0.000000      1.000000
  0.026378 -0.015143  0.000000      2.000000
  0.000000  0.030291  0.000000      2.000000
  0.026378  0.015147  0.000000      2.000000
 -0.026378  0.045434  0.000000      2.000000
 


--------------------------------------------------------------------------------------------------------




 Dimension of arrays:
   k-points           NKPTS =      5   k-points in BZ     NKDIM =      5   number of bands    NBANDS=    422
   number of dos      NEDOS =    301   number of ions     NIONS =    110
   non local maximal  LDIM  =      6   non local SUM 2l+1 LMDIM =     18
   total plane-waves  NPLWV = 614400
   max r-space proj   IRMAX =   2364   max aug-charges    IRDMAX=   9654
   dimension x,y,z NGX =    64 NGY =   64 NGZ =  150
   dimension x,y,z NGXF=   128 NGYF=  128 NGZF=  300
   support grid    NGXF=   128 NGYF=  128 NGZF=  300
   ions per type =              32  64   6   7   1
   NGX,Y,Z   is equivalent  to a cutoff of   8.42,  8.39,  8.31 a.u.
   NGXF,Y,Z  is equivalent  to a cutoff of  16.84, 16.77, 16.62 a.u.

 SYSTEM =  scf                                     
 POSCAR =  PDB File                                

 Startparameter for this run:
   NWRITE =      2    write-flag & timer
   PREC   = normal    normal or accurate (medium, high low for compatibility)
   ISTART =      1    job   : 0-new  1-cont  2-samecut
   ICHARG =     11    charge: 1-file 2-atom 10-const
   ISPIN  =      2    spin polarized calculation?
   LNONCOLLINEAR =      F non collinear calculations
   LSORBIT =      F    spin-orbit coupling
   INIWAV =      1    electr: 0-lowe 1-rand  2-diag
   LASPH  =      F    aspherical Exc in radial PAW
   METAGGA=      F    non-selfconsistent MetaGGA calc.

 Electronic Relaxation 1
   ENCUT  =  400.0 eV  29.40 Ry    5.42 a.u.  20.61 20.69 48.92*2*pi/ulx,y,z
   ENINI  =  400.0     initial cutoff
   ENAUG  =  644.9 eV  augmentation charge cutoff
   NELM   =     60;   NELMIN=  2; NELMDL=  0     # of ELM steps 
   EDIFF  = 0.1E-06   stopping-criterion for ELM
   LREAL  =      T    real-space projection
   NLSPLINE    = F    spline interpolate recip. space projectors
   LCOMPAT=      F    compatible to vasp.4.4
   GGA_COMPAT  = T    GGA compatible to vasp.4.4-vasp.4.6
   LMAXPAW     = -100 max onsite density
   LMAXMIX     =    2 max onsite mixed and CHGCAR
   VOSKOWN=      0    Vosko Wilk Nusair interpolation
   ROPT   =   -0.00050  -0.00050  -0.00050  -0.00050
   ROPT   =   -0.00050
 Ionic relaxation
   EDIFFG = -.1E-01   stopping-criterion for IOM
   NSW    =      0    number of steps for IOM
   NBLOCK =      1;   KBLOCK =      1    inner block; outer block 
   IBRION =     -1    ionic relax: 0-MD 1-quasi-New 2-CG
   NFREE  =      0    steps in history (QN), initial steepest desc. (CG)
   ISIF   =      2    stress and relaxation
   IWAVPR =     10    prediction:  0-non 1-charg 2-wave 3-comb
   ISYM   =      2    0-nonsym 1-usesym 2-fastsym
   LCORR  =      T    Harris-Foulkes like correction to forces

   POTIM  = 0.5000    time-step for ionic-motion
   TEIN   =    0.0    initial temperature
   TEBEG  =    0.0;   TEEND  =   0.0 temperature during run
   SMASS  =  -3.00    Nose mass-parameter (am)
   estimated Nose-frequenzy (Omega)   =  0.10E-29 period in steps =****** mass=  -0.365E-26a.u.
   SCALEE = 1.0000    scale energy and forces
   NPACO  =    256;   APACO  = 16.0  distance and # of slots for P.C.
   PSTRESS=    0.0 pullay stress

  Mass of Ions in am
   POMASS =  95.94 32.07 12.01  1.00 16.00
  Ionic Valenz
   ZVAL   =   6.00  6.00  4.00  1.00  6.00
  Atomic Wigner-Seitz radii
   RWIGS  =  -1.00 -1.00 -1.00 -1.00 -1.00
  virtual crystal weights 
   VCA    =   1.00  1.00  1.00  1.00  1.00
   NELECT =     613.0000    total number of electrons
   NUPDOWN=      -1.0000    fix difference up-down

 DOS related values:
   EMIN   =  10.00;   EMAX   =-10.00  energy-range for DOS
   EFERMI =   0.00
   ISMEAR =     0;   SIGMA  =   0.20  broadening in eV -4-tet -1-fermi 0-gaus

 Electronic relaxation 2 (details)
   IALGO  =     38    algorithm
   LDIAG  =      T    sub-space diagonalisation (order eigenvalues)
   LSUBROT=      F    optimize rotation matrix (better conditioning)
   TURBO    =      0    0=normal 1=particle mesh
   IRESTART =      0    0=no restart 2=restart with 2 vectors
   NREBOOT  =      0    no. of reboots
   NMIN     =      0    reboot dimension
   EREF     =   0.00    reference energy to select bands
   IMIX   =      4    mixing-type and parameters
     AMIX     =   0.40;   BMIX     =  1.00
     AMIX_MAG =   1.60;   BMIX_MAG =  1.00
     AMIN     =   0.10
     WC   =   100.;   INIMIX=   1;  MIXPRE=   1;  MAXMIX= -45

 Intra band minimization:
   WEIMIN = 0.0000     energy-eigenvalue tresh-hold
   EBREAK =  0.59E-10  absolut break condition
   DEPER  =   0.30     relativ break condition  

   TIME   =   0.40     timestep for ELM

  volume/ion in A,a.u.               =      37.93       255.94
  Fermi-wavevector in a.u.,A,eV,Ry     =   0.863874  1.632485 10.153725  0.746278
  Thomas-Fermi vector in A             =   1.981888

 Write flags
   LWAVE        =      T    write WAVECAR
   LDOWNSAMPLE  =      F    k-point downsampling of WAVECAR
   LCHARG       =      T    write CHGCAR
   LVTOT        =      F    write LOCPOT, total local potential
   LVHAR        =      F    write LOCPOT, Hartree potential only
   LELF         =      F    write electronic localiz. function (ELF)
   LORBIT       =     11    0 simple, 1 ext, 2 COOP (PROOUT), +10 PAW based schemes


 Dipole corrections
   LMONO  =      F    monopole corrections only (constant potential shift)
   LDIPOL =      F    correct potential (dipole corrections)
   IDIPOL =      0    1-x, 2-y, 3-z, 4-all directions 
   EPSILON=  1.0000000 bulk dielectric constant

 Exchange correlation treatment:
   GGA     =    PE    GGA type
   LEXCH   =     8    internal setting for exchange type
   VOSKOWN=      0    Vosko Wilk Nusair interpolation
   LHFCALC =     F    Hartree Fock is set to
   LHFONE  =     F    Hartree Fock one center treatment
   AEXX    =    0.0000 exact exchange contribution

 Linear response parameters
   LEPSILON=     F    determine dielectric tensor
   LRPA    =     F    only Hartree local field effects (RPA)
   LNABLA  =     F    use nabla operator in PAW spheres
   LVEL    =     F    velocity operator in full k-point grid
   LINTERFAST=   F  fast interpolation
   KINTER  =     0    interpolate to denser k-point grid
   CSHIFT  =0.1000    complex shift for real part using Kramers Kronig
   OMEGAMAX=  -1.0    maximum frequency
   DEG_THRESHOLD= 0.2000000E-02 threshold for treating states as degnerate
   RTIME   =   -0.100 relaxation time in fs
  (WPLASMAI=    0.000 imaginary part of plasma frequency in eV, 0.658/RTIME)
   DFIELD  = 0.0000000 0.0000000 0.0000000 field for delta impulse in time

 Orbital magnetization related:
   ORBITALMAG=     F  switch on orbital magnetization
   LCHIMAG   =     F  perturbation theory with respect to B field
   DQ        =  0.001000  dq finite difference perturbation B field
   LLRAUG    =     F  two centre corrections for induced B field



--------------------------------------------------------------------------------------------------------


 Static calculation
 charge density and potential remain constant during run
 spin polarized calculation
 Variant of blocked Davidson
 Davidson routine will perform the subspace rotation
 perform sub-space diagonalisation
    after iterative eigenvector-optimisation
 no mixing
 using additional bands          115
 real space projection scheme for non local part
 use partial core corrections
 calculate Harris-corrections to forces   (improved forces if not selfconsistent)
 use gradient corrections 
 WARNING: stress and forces are not correct
  (second derivative of E(xc) not defined)
 use of overlap-Matrix (Vanderbilt PP)
 Gauss-broadening in eV      SIGMA  =   0.20


--------------------------------------------------------------------------------------------------------


  energy-cutoff  :      400.00
  volume of cell :     4171.90
      direct lattice vectors                 reciprocal lattice vectors
    12.637000084  0.000000000  0.000000000     0.079132705 -0.045429842  0.000000000
     6.317630085 11.004466111  0.000000000     0.000000000  0.090872196  0.000000000
     0.000000000  0.000000000 30.000000000     0.000000000  0.000000000  0.033333333

  length of vectors
    12.637000084 12.689000130 30.000000000     0.091246126  0.090872196  0.033333333



 old parameters found on file WAVECAR:
  energy-cutoff  :      400.00
  volume of cell :     4171.90
      direct lattice vectors                 reciprocal lattice vectors
    12.637000084  0.000000000  0.000000000     0.079132705 -0.045429842  0.000000000
     6.317630085 11.004466111  0.000000000     0.000000000  0.090872196  0.000000000
     0.000000000  0.000000000 30.000000000     0.000000000  0.000000000  0.033333333

  length of vectors


 k-points in units of 2pi/SCALE and weight: Gamma point only                        
   0.00000000  0.00000000  0.00000000       0.111
   0.02637757 -0.01514328  0.00000000       0.222
   0.00000000  0.03029073  0.00000000       0.222
   0.02637757  0.01514745  0.00000000       0.222
  -0.02637757  0.04543401  0.00000000       0.222

 k-points in reciprocal lattice and weights: Gamma point only                        
   0.00000000  0.00000000  0.00000000       0.111
   0.33333333  0.00000000  0.00000000       0.222
   0.00000000  0.33333333  0.00000000       0.222
   0.33333333  0.33333333  0.00000000       0.222
  -0.33333333  0.33333333  0.00000000       0.222

 position of ions in fractional coordinates (direct lattice) 
   0.08314336  0.08378416  0.25973332
   0.33312356  0.08378416  0.25973332
   0.58310378  0.08378416  0.25973332
   0.83316308  0.08378416  0.25973332
   0.08311640  0.33377358  0.25973332
   0.33317572  0.33377358  0.25973332
   0.58315593  0.33377358  0.25973332
   0.83313620  0.33377358  0.25973332
   0.08316858  0.58376294  0.25973332
   0.33314878  0.58376294  0.25973332
   0.58320814  0.58376294  0.25973332
   0.83318835  0.58376294  0.25973332
   0.08322074  0.83375239  0.25973332
   0.33320093  0.83375239  0.25973332
   0.58318120  0.83375239  0.25973332
   0.83324051  0.83375239  0.25973332
   0.00000000  0.00000000  0.05320000
   0.24998021  0.00000000  0.05320000
   0.50003952  0.00000000  0.05320000
   0.75001973  0.00000000  0.05320000
   0.00005218  0.24998941  0.05320000
   0.25003240  0.24998941  0.05320000
   0.50001258  0.24998941  0.05320000
   0.75007194  0.24998941  0.05320000
   0.00002522  0.49997881  0.05320000
   0.25008455  0.49997881  0.05320000
   0.50006479  0.49997881  0.05320000
   0.75004500  0.49997881  0.05320000
   0.00007738  0.74996823  0.05320000
   0.25005758  0.74996823  0.05320000
   0.50011694  0.74996823  0.05320000
   0.75009716  0.74996823  0.05320000
   0.99986368  0.00027262  0.20733333
   0.24984393  0.00027262  0.20733333
   0.49990326  0.00027262  0.20733333
   0.74988347  0.00027262  0.20733333
   0.99991590  0.25026202  0.20733333
   0.24989609  0.25026202  0.20733333
   0.49987629  0.25026202  0.20733333
   0.74993563  0.25026202  0.20733333
   0.99996805  0.50025147  0.20733333
   0.24994826  0.50025147  0.20733333
   0.49992847  0.50025147  0.20733333
   0.74990869  0.50025147  0.20733333
   0.99994111  0.75024080  0.20733333
   0.24992132  0.75024080  0.20733333
   0.49998066  0.75024080  0.20733333
   0.74996090  0.75024080  0.20733333
   0.99998826  0.00018174  0.31220001
   0.24992307  0.00027262  0.31216666
   0.49993700  0.00036349  0.31216666
   0.74988347  0.00027262  0.31216666
   0.99979126  0.25035292  0.31216666
   0.24997522  0.25026202  0.31213334
   0.49995548  0.25026202  0.31220001
   0.74985653  0.25026202  0.31220001
   0.99988890  0.50025147  0.31220001
   0.24994826  0.50025147  0.31220001
   0.49995044  0.50052404  0.31209999
   0.74994236  0.50034231  0.31216666
   0.00009941  0.75024080  0.31220001
   0.25000051  0.75024080  0.31216666
   0.50007153  0.75005907  0.31196669
   0.74991548  0.75033170  0.31216666
   0.08327965  0.08351155  0.00083333
   0.33325985  0.08351155  0.00083333
   0.58324003  0.08351155  0.00083333
   0.83329940  0.08351155  0.00083333
   0.08325268  0.33350095  0.00083333
   0.33331203  0.33350095  0.00083333
   0.58329225  0.33350095  0.00083333
   0.83327246  0.33350095  0.00083333
   0.08330486  0.58349037  0.00083333
   0.33328506  0.58349037  0.00083333
   0.58334440  0.58349037  0.00083333
   0.83332467  0.58349037  0.00083333
   0.08335704  0.83347976  0.00083333
   0.33333725  0.83347976  0.00083333
   0.58331752  0.83347976  0.00083333
   0.83337682  0.83347976  0.00083333
   0.08327965  0.08351155  0.10560000
   0.33325985  0.08351155  0.10560000
   0.58324003  0.08351155  0.10560000
   0.83329940  0.08351155  0.10560000
   0.08325268  0.33350095  0.10560000
   0.33331203  0.33350095  0.10560000
   0.58329225  0.33350095  0.10560000
   0.83327246  0.33350095  0.10560000
   0.08330486  0.58349037  0.10560000
   0.33328506  0.58349037  0.10560000
   0.58334440  0.58349037  0.10560000
   0.83332467  0.58349037  0.10560000
   0.08335704  0.83347976  0.10560000
   0.33333725  0.83347976  0.10560000
   0.58331752  0.83347976  0.10560000
   0.83337682  0.83347976  0.10560000
   0.55928499  0.37075856  0.41536668
   0.62586367  0.43164292  0.41383332
   0.56426370  0.55850053  0.41213334
   0.43676347  0.62438285  0.41180000
   0.37086472  0.56277150  0.41290000
   0.43178630  0.43600479  0.41459998
   0.72538877  0.37866443  0.41373333
   0.61631298  0.60602671  0.41096669
   0.38890672  0.72343355  0.41046667
   0.27123123  0.61375082  0.41236669
   0.38181055  0.38638857  0.41510001
   0.63595593  0.21391316  0.44556665
   0.63911557  0.20664337  0.38696668
   0.62048936  0.24390097  0.41506666

 position of ions in cartesian coordinates  (Angst):
   1.58000001  0.92199998  7.79199958
   4.73899986  0.92199998  7.79199958
   7.89799982  0.92199998  7.79199958
  11.05799929  0.92199998  7.79199958
   3.15899995  3.67300008  7.79199958
   6.31899962  3.67300008  7.79199958
   9.47799957  3.67300008  7.79199958
  12.63700027  3.67300008  7.79199958
   4.73899970  6.42399953  7.79199958
   7.89799946  6.42399953  7.79199958
  11.05799970  6.42399953  7.79199958
  14.21699965  6.42399953  7.79199958
   6.31899964  9.17499996  7.79199958
   9.47799941  9.17499996  7.79199958
  12.63700011  9.17499996  7.79199958
  15.79699959  9.17499996  7.79199958
   0.00000000  0.00000000  1.59599997
   3.15899995  0.00000000  1.59599997
   6.31899943  0.00000000  1.59599997
   9.47799938  0.00000000  1.59599997
   1.58000005  2.75099994  1.59599997
   4.73899999  2.75099994  1.59599997
   7.89799956  2.75099994  1.59599997
  11.05799979  2.75099994  1.59599997
   3.15899993  5.50199988  1.59599997
   6.31899964  5.50199988  1.59599997
   9.47799997  5.50199988  1.59599997
  12.63699992  5.50199988  1.59599997
   4.73899968  8.25299998  1.59599997
   7.89799949  8.25299998  1.59599997
  11.05799973  8.25299998  1.59599997
  14.21699968  8.25299998  1.59599997
  12.63699975  0.00300000  6.21999979
   3.15900000  0.00300000  6.21999979
   6.31899985  0.00300000  6.21999979
   9.47799980  0.00300000  6.21999979
  14.21700016  2.75399994  6.21999979
   4.73899984  2.75399994  6.21999979
   7.89799961  2.75399994  6.21999979
  11.05799946  2.75399994  6.21999979
  15.79700011  5.50500037  6.21999979
   6.31899997  5.50500037  6.21999979
   9.47799992  5.50500037  6.21999979
  12.63699987  5.50500037  6.21999979
  17.37599976  8.25599949  6.21999979
   7.89799963  8.25599949  6.21999979
  11.05799949  8.25599949  6.21999979
  14.21699981  8.25599949  6.21999979
  12.63799989  0.00200000  9.36600029
   3.16000009  0.00300000  9.36499983
   6.32000027  0.00400000  9.36499983
   9.47799980  0.00300000  9.36499983
  14.21599943  2.75500021  9.36499983
   4.73999975  2.75399994  9.36400026
   7.89900026  2.75399994  9.36600029
  11.05699993  2.75399994  9.36600029
  15.79599982  5.50500037  9.36600029
   6.31899997  5.50500037  9.36600029
   9.47999949  5.50799988  9.36299980
  12.63799932  5.50599999  9.36499983
   4.74100013  8.25599949  9.36600029
   7.89900029  8.25599949  9.36499983
  11.05799965  8.25399960  9.35900062
  14.21700011  8.25699976  9.36499983
   1.58000010  0.91900006  0.02500000
   4.73899987  0.91900006  0.02500000
   7.89799944  0.91900006  0.02500000
  11.05799967  0.91900006  0.02500000
   3.15899981  3.66999992  0.02500000
   6.31899985  3.66999992  0.02500000
   9.47799980  3.66999992  0.02500000
  12.63699975  3.66999992  0.02500000
   4.73899985  6.42100002  0.02500000
   7.89799970  6.42100002  0.02500000
  11.05799956  6.42100002  0.02500000
  14.21700026  6.42100002  0.02500000
   6.31899969  9.17199980  0.02500000
   9.47799964  9.17199980  0.02500000
  12.63700035  9.17199980  0.02500000
  15.79699983  9.17199980  0.02500000
   1.58000010  0.91900006  3.16799998
   4.73899987  0.91900006  3.16799998
   7.89799944  0.91900006  3.16799998
  11.05799967  0.91900006  3.16799998
   3.15899981  3.66999992  3.16799998
   6.31899985  3.66999992  3.16799998
   9.47799980  3.66999992  3.16799998
  12.63699975  3.66999992  3.16799998
   4.73899985  6.42100002  3.16799998
   7.89799970  6.42100002  3.16799998
  11.05799956  6.42100002  3.16799998
  14.21700026  6.42100002  3.16799998
   6.31899969  9.17199980  3.16799998
   9.47799964  9.17199980  3.16799998
  12.63700035  9.17199980  3.16799998
  15.79699983  9.17199980  3.16799998
   9.40999986  4.08000004 12.46100038
  10.63599956  4.74999988 12.41499960
  10.65900018  6.14600014 12.36400008
   9.46399985  6.87099995 12.35399991
   8.24199964  6.19299989 12.38700002
   8.21100046  4.79799991 12.43799955
  11.55899971  4.16699993 12.41200000
  11.61699976  6.66900038 12.32900083
   9.48499981  7.96100003 12.31400013
   7.30499974  6.75400005 12.37100065
   7.26599996  4.25199993 12.45300025
   9.38799934  2.35400009 13.36699963
   9.38199992  2.27399999 11.60900027
   9.38200018  2.68399996 12.45199978



--------------------------------------------------------------------------------------------------------


 k-point  1 :   0.0000 0.0000 0.0000  plane waves:   75791
 k-point  2 :   0.3333 0.0000 0.0000  plane waves:   75762
 k-point  3 :   0.0000 0.3333 0.0000  plane waves:   75744
 k-point  4 :   0.3333 0.3333 0.0000  plane waves:   75758
 k-point  5 :  -0.3333 0.3333 0.0000  plane waves:   75765

 maximum and minimum number of plane-waves per node :     18996    18907

 maximum number of plane-waves:     75791
 maximum index in each direction: 
   IXMAX=   20   IYMAX=   20   IZMAX=   48
   IXMIN=  -20   IYMIN=  -21   IZMIN=  -48


 real space projection operators:
  total allocation   :      15397.63 KBytes
  max/ min on nodes  :       3857.80       3837.36


 parallel 3D FFT for wavefunctions:
    minimum data exchange during FFTs selected (reduces bandwidth)
 parallel 3D FFT for charge:
    minimum data exchange during FFTs selected (reduces bandwidth)


 total amount of memory used by VASP MPI-rank0  1529896. kBytes
=======================================================================

   base      :      30000. kBytes
   nonlr-proj:       9090. kBytes
   fftplans  :      46167. kBytes
   grid      :     140836. kBytes
   one-center:        870. kBytes
   wavefun   :    1302933. kBytes

     INWAV:  cpu time    5.1835: real time    5.1838
 initial charge density was supplied:
 number of electron     612.9999836 magnetization      -0.0000216
 keeping initial charge density in first step


--------------------------------------------------------------------------------------------------------


 Maximum index for non-local projection operator          570
 Maximum index for augmentation-charges         2313 (set IRDMAX)


--------------------------------------------------------------------------------------------------------


 First call to EWALD:  gamma=   0.110
 Maximum number of real-space cells 4x 4x 2
 Maximum number of reciprocal cells 2x 2x 5

    FEWALD:  cpu time    1.5634: real time    1.5634


--------------------------------------- Iteration      1(   1)  ---------------------------------------


    POTLOK:  cpu time    2.2186: real time    2.2187
    SETDIJ:  cpu time    0.1544: real time    0.1544
     EDDAV:  cpu time 1428.6321: real time 1429.0134
       DOS:  cpu time    0.0068: real time    0.0068
    --------------------------------------------
      LOOP:  cpu time 1431.0119: real time 1431.3932

 eigenvalue-minimisations  : 10232
 total energy-change (2. order) :-0.7801276E+03  (-0.2669750E-03)
 number of electron     612.9999836 magnetization      -0.0000216
 augmentation part      612.9999836 magnetization      -0.0000216

 Free energy of the ion-electron system (eV)
  ---------------------------------------------------
  alpha Z        PSCENC =       798.34230272
  Ewald energy   TEWEN  =    175010.20187773
  -Hartree energ DENC   =   -200426.71146733
  -exchange      EXHF   =         0.00000000
  -V(xc)+E(xc)   XCENC  =      -987.82005600
  PAW double counting   =     15978.76054024   -13564.06602952
  entropy T*S    EENTRO =        -0.21824257
  eigenvalues    EBANDS =     -3667.86854026
  atomic energy  EATOM  =     26079.25201172
  Solvation  Ediel_sol  =         0.00000000
  ---------------------------------------------------
  free energy    TOTEN  =      -780.12760326 eV

  energy without entropy =     -779.90936069  energy(sigma->0) =     -780.01848198


--------------------------------------------------------------------------------------------------------




--------------------------------------- Iteration      1(   2)  ---------------------------------------


     EDDAV:  cpu time 1386.6078: real time 1387.9664
       DOS:  cpu time    0.0112: real time    0.0112
    --------------------------------------------
      LOOP:  cpu time 1386.6191: real time 1387.9777

 eigenvalue-minimisations  :  9888
 total energy-change (2. order) :-0.1991572E-04  (-0.1991580E-04)
 number of electron     612.9999836 magnetization      -0.0000216
 augmentation part      612.9999836 magnetization      -0.0000216

 Free energy of the ion-electron system (eV)
  ---------------------------------------------------
  alpha Z        PSCENC =       798.34230272
  Ewald energy   TEWEN  =    175010.20187773
  -Hartree energ DENC   =   -200426.71146733
  -exchange      EXHF   =         0.00000000
  -V(xc)+E(xc)   XCENC  =      -987.82005600
  PAW double counting   =     15978.76054024   -13564.06602952
  entropy T*S    EENTRO =        -0.21824258
  eigenvalues    EBANDS =     -3667.86856016
  atomic energy  EATOM  =     26079.25201172
  Solvation  Ediel_sol  =         0.00000000
  ---------------------------------------------------
  free energy    TOTEN  =      -780.12762318 eV

  energy without entropy =     -779.90938060  energy(sigma->0) =     -780.01850189


--------------------------------------------------------------------------------------------------------




--------------------------------------- Iteration      1(   3)  ---------------------------------------


     EDDAV:  cpu time 1714.5008: real time 1714.9904
       DOS:  cpu time    0.0067: real time    0.0067
    --------------------------------------------
      LOOP:  cpu time 1714.5075: real time 1714.9971

 eigenvalue-minimisations  : 12576
 total energy-change (2. order) :-0.3958339E-06  (-0.3958583E-06)
 number of electron     612.9999836 magnetization      -0.0000216
 augmentation part      612.9999836 magnetization      -0.0000216

 Free energy of the ion-electron system (eV)
  ---------------------------------------------------
  alpha Z        PSCENC =       798.34230272
  Ewald energy   TEWEN  =    175010.20187773
  -Hartree energ DENC   =   -200426.71146733
  -exchange      EXHF   =         0.00000000
  -V(xc)+E(xc)   XCENC  =      -987.82005600
  PAW double counting   =     15978.76054024   -13564.06602952
  entropy T*S    EENTRO =        -0.21824258
  eigenvalues    EBANDS =     -3667.86856056
  atomic energy  EATOM  =     26079.25201172
  Solvation  Ediel_sol  =         0.00000000
  ---------------------------------------------------
  free energy    TOTEN  =      -780.12762358 eV

  energy without entropy =     -779.90938099  energy(sigma->0) =     -780.01850228


--------------------------------------------------------------------------------------------------------




--------------------------------------- Iteration      1(   4)  ---------------------------------------


     EDDAV:  cpu time 1100.7069: real time 1100.7922
       DOS:  cpu time    0.0100: real time    0.0100
    --------------------------------------------
      LOOP:  cpu time 1100.7169: real time 1100.8022

 eigenvalue-minimisations  :  7408
 total energy-change (2. order) :-0.3783498E-08  (-0.3464091E-08)
 number of electron     612.9999836 magnetization      -0.0000216
 augmentation part      612.9999836 magnetization      -0.0000216

 Free energy of the ion-electron system (eV)
  ---------------------------------------------------
  alpha Z        PSCENC =       798.34230272
  Ewald energy   TEWEN  =    175010.20187773
  -Hartree energ DENC   =   -200426.71146733
  -exchange      EXHF   =         0.00000000
  -V(xc)+E(xc)   XCENC  =      -987.82005600
  PAW double counting   =     15978.76054024   -13564.06602952
  entropy T*S    EENTRO =        -0.21824258
  eigenvalues    EBANDS =     -3667.86856056
  atomic energy  EATOM  =     26079.25201172
  Solvation  Ediel_sol  =         0.00000000
  ---------------------------------------------------
  free energy    TOTEN  =      -780.12762358 eV

  energy without entropy =     -779.90938100  energy(sigma->0) =     -780.01850229


--------------------------------------------------------------------------------------------------------




 average (electrostatic) potential at core
  the test charge radii are     1.2296  0.9698  0.6991  0.5201  0.7215
  (the norm of the test charge is              1.0000)
       1 -44.1323       2 -44.1327       3 -44.1289       4 -44.1296       5 -44.1283
       6 -44.1335       7 -44.1258       8 -44.1327       9 -44.1285      10 -44.1367
      11 -44.1349      12 -44.1284      13 -44.1318      14 -44.1216      15 -44.1315
      16 -44.1333      17 -44.0019      18 -44.0037      19 -44.0021      20 -44.0025
      21 -44.0034      22 -44.0039      23 -44.0018      24 -44.0019      25 -44.0031
      26 -44.0037      27 -44.0025      28 -44.0034      29 -44.0036      30 -44.0030
      31 -44.0028      32 -44.0038      33 -92.0166      34 -92.0127      35 -92.0168
      36 -92.0142      37 -92.0170      38 -92.0174      39 -92.0127      40 -92.0129
      41 -92.0146      42 -92.0181      43 -92.0190      44 -92.0167      45 -92.0167
      46 -92.0137      47 -92.0141      48 -92.0165      49 -92.0547      50 -92.0429
      51 -92.0576      52 -92.1088      53 -92.0468      54 -92.0486      55 -92.1761
      56 -92.1556      57 -92.0415      58 -92.0644      59 -92.0560      60 -92.0657
      61 -92.0440      62 -92.0646      63 -92.0694      64 -92.0446      65 -91.8899
      66 -91.8895      67 -91.8886      68 -91.8887      69 -91.8901      70 -91.8900
      71 -91.8881      72 -91.8899      73 -91.8896      74 -91.8899      75 -91.8897
      76 -91.8901      77 -91.8893      78 -91.8894      79 -91.8893      80 -91.8897
      81 -91.9018      82 -91.9014      83 -91.9000      84 -91.9000      85 -91.9022
      86 -91.9015      87 -91.8994      88 -91.9014      89 -91.9015      90 -91.9017
      91 -91.9015      92 -91.9019      93 -91.9012      94 -91.9015      95 -91.9012
      96 -91.9014      97 -57.6211      98 -55.9131      99 -55.6000     100 -55.5354
     101 -55.6049     102 -55.9191     103 -39.0770     104 -38.6128     105 -38.5727
     106 -38.6182     107 -39.0842     108 -44.7341     109 -44.5640     110 -82.1931



 E-fermi :   0.8881     XC(G=0):  -5.0629     alpha+bet : -5.0559


 spin component 1

 k-point     1 :       0.0000    0.0000    0.0000
  band No.  band energies     occupation 
      1     -27.1546      1.00000
      2     -18.3128      1.00000
      3     -15.9325      1.00000
      4     -15.4296      1.00000
      5     -15.2308      1.00000
      6     -14.8875      1.00000
      7     -14.6918      1.00000
      8     -14.1016      1.00000
      9     -14.0835      1.00000
     10     -14.0806      1.00000
     11     -14.0705      1.00000
     12     -14.0676      1.00000
     13     -14.0634      1.00000
     14     -13.8968      1.00000
     15     -13.8938      1.00000
     16     -13.8883      1.00000
     17     -13.8867      1.00000
     18     -13.8850      1.00000
     19     -13.8846      1.00000
     20     -13.7240      1.00000
     21     -13.4596      1.00000
     22     -13.3405      1.00000
     23     -13.3149      1.00000
     24     -13.3147      1.00000
     25     -13.3013      1.00000
     26     -13.2981      1.00000
     27     -13.2955      1.00000
     28     -13.2340      1.00000
     29     -13.0945      1.00000
     30     -13.0915      1.00000
     31     -13.0910      1.00000
     32     -13.0828      1.00000
     33     -13.0815      1.00000
     34     -13.0808      1.00000
     35     -13.0731      1.00000
     36     -13.0672      1.00000
     37     -13.0477      1.00000
     38     -13.0441      1.00000
     39     -13.0324      1.00000
     40     -13.0316      1.00000
     41     -13.0160      1.00000
     42     -13.0032      1.00000
     43     -12.9976      1.00000
     44     -12.8988      1.00000
     45     -12.8979      1.00000
     46     -12.8945      1.00000
     47     -12.8942      1.00000
     48     -12.8842      1.00000
     49     -12.8828      1.00000
     50     -12.8745      1.00000
     51     -12.8560      1.00000
     52     -12.8539      1.00000
     53     -12.8008      1.00000
     54     -12.7900      1.00000
     55     -12.7773      1.00000
     56     -12.7745      1.00000
     57     -12.7725      1.00000
     58     -12.7654      1.00000
     59     -12.7648      1.00000
     60     -12.7585      1.00000
     61     -12.7576      1.00000
     62     -12.6516      1.00000
     63     -12.6288      1.00000
     64     -12.6282      1.00000
     65     -12.6170      1.00000
     66     -12.6166      1.00000
     67     -12.6163      1.00000
     68     -12.6158      1.00000
     69     -12.6054      1.00000
     70     -12.6048      1.00000
     71     -12.1148      1.00000
     72     -10.7131      1.00000
     73      -9.0161      1.00000
     74      -8.9966      1.00000
     75      -7.4654      1.00000
     76      -7.0980      1.00000
     77      -6.9214      1.00000
     78      -6.6448      1.00000
     79      -6.5932      1.00000
     80      -6.5854      1.00000
     81      -6.5787      1.00000
     82      -6.3803      1.00000
     83      -6.3715      1.00000
     84      -6.3691      1.00000
     85      -6.3245      1.00000
     86      -6.0544      1.00000
     87      -5.9594      1.00000
     88      -5.9355      1.00000
     89      -5.9337      1.00000
     90      -5.9198      1.00000
     91      -5.9182      1.00000
     92      -5.9144      1.00000
     93      -5.9091      1.00000
     94      -5.9083      1.00000
     95      -5.9057      1.00000
     96      -5.9044      1.00000
     97      -5.9030      1.00000
     98      -5.8102      1.00000
     99      -5.7603      1.00000
    100      -5.7515      1.00000
    101      -5.7379      1.00000
    102      -5.7370      1.00000
    103      -5.7333      1.00000
    104      -5.7326      1.00000
    105      -5.6747      1.00000
    106      -5.6711      1.00000
    107      -5.6646      1.00000
    108      -5.6587      1.00000
    109      -5.6566      1.00000
    110      -5.6524      1.00000
    111      -5.6494      1.00000
    112      -5.6473      1.00000
    113      -5.6430      1.00000
    114      -5.5866      1.00000
    115      -5.5229      1.00000
    116      -5.5225      1.00000
    117      -5.5163      1.00000
    118      -5.5128      1.00000
    119      -5.5090      1.00000
    120      -5.5085      1.00000
    121      -5.5079      1.00000
    122      -5.5076      1.00000
    123      -5.5072      1.00000
    124      -5.5047      1.00000
    125      -5.4962      1.00000
    126      -5.4731      1.00000
    127      -5.4721      1.00000
    128      -5.4673      1.00000
    129      -5.4542      1.00000
    130      -5.0098      1.00000
    131      -4.9370      1.00000
    132      -4.9248      1.00000
    133      -4.9167      1.00000
    134      -4.6194      1.00000
    135      -4.6194      1.00000
    136      -4.6024      1.00000
    137      -4.5945      1.00000
    138      -4.5936      1.00000
    139      -4.5922      1.00000
    140      -4.5900      1.00000
    141      -4.5871      1.00000
    142      -4.5839      1.00000
    143      -4.5123      1.00000
    144      -4.4841      1.00000
    145      -4.4784      1.00000
    146      -4.4681      1.00000
    147      -4.4599      1.00000
    148      -4.4550      1.00000
    149      -4.4460      1.00000
    150      -4.4287      1.00000
    151      -4.4272      1.00000
    152      -4.4257      1.00000
    153      -4.4210      1.00000
    154      -4.4115      1.00000
    155      -4.3398      1.00000
    156      -4.3345      1.00000
    157      -4.3298      1.00000
    158      -4.3257      1.00000
    159      -4.3232      1.00000
    160      -4.3222      1.00000
    161      -4.3212      1.00000
    162      -4.3170      1.00000
    163      -4.3095      1.00000
    164      -4.3077      1.00000
    165      -4.3071      1.00000
    166      -4.2985      1.00000
    167      -4.0690      1.00000
    168      -4.0653      1.00000
    169      -4.0630      1.00000
    170      -4.0581      1.00000
    171      -4.0538      1.00000
    172      -4.0503      1.00000
    173      -4.0470      1.00000
    174      -4.0467      1.00000
    175      -4.0465      1.00000
    176      -4.0448      1.00000
    177      -4.0407      1.00000
    178      -4.0353      1.00000
    179      -3.8915      1.00000
    180      -3.8895      1.00000
    181      -3.8332      1.00000
    182      -3.8054      1.00000
    183      -3.8017      1.00000
    184      -3.7825      1.00000
    185      -3.7818      1.00000
    186      -3.7777      1.00000
    187      -3.7768      1.00000
    188      -3.7442      1.00000
    189      -3.7429      1.00000
    190      -3.6842      1.00000
    191      -3.6635      1.00000
    192      -3.6586      1.00000
    193      -3.6555      1.00000
    194      -3.6539      1.00000
    195      -3.6441      1.00000
    196      -3.6436      1.00000
    197      -3.4882      1.00000
    198      -3.4867      1.00000
    199      -3.4860      1.00000
    200      -3.4853      1.00000
    201      -3.4680      1.00000
    202      -3.4675      1.00000
    203      -3.3663      1.00000
    204      -3.3183      1.00000
    205      -3.2600      1.00000
    206      -3.2046      1.00000
    207      -3.1937      1.00000
    208      -3.1912      1.00000
    209      -3.1894      1.00000
    210      -3.1855      1.00000
    211      -3.1842      1.00000
    212      -3.1458      1.00000
    213      -3.1377      1.00000
    214      -3.1251      1.00000
    215      -3.0485      1.00000
    216      -3.0476      1.00000
    217      -3.0468      1.00000
    218      -3.0466      1.00000
    219      -3.0269      1.00000
    220      -2.9994      1.00000
    221      -2.9988      1.00000
    222      -2.7552      1.00000
    223      -2.7330      1.00000
    224      -2.7262      1.00000
    225      -2.5422      1.00000
    226      -2.5278      1.00000
    227      -2.5170      1.00000
    228      -2.5076      1.00000
    229      -2.5039      1.00000
    230      -2.4902      1.00000
    231      -2.4874      1.00000
    232      -2.4806      1.00000
    233      -2.4778      1.00000
    234      -2.4709      1.00000
    235      -2.4693      1.00000
    236      -2.4681      1.00000
    237      -2.4661      1.00000
    238      -2.4319      1.00000
    239      -2.4252      1.00000
    240      -2.3278      1.00000
    241      -2.3277      1.00000
    242      -2.3271      1.00000
    243      -2.3265      1.00000
    244      -2.2874      1.00000
    245      -2.2870      1.00000
    246      -2.2663      1.00000
    247      -2.2498      1.00000
    248      -2.2471      1.00000
    249      -2.2460      1.00000
    250      -2.2432      1.00000
    251      -2.2387      1.00000
    252      -2.2356      1.00000
    253      -2.2255      1.00000
    254      -2.2182      1.00000
    255      -2.2160      1.00000
    256      -2.2134      1.00000
    257      -2.1950      1.00000
    258      -2.1931      1.00000
    259      -2.1555      1.00000
    260      -2.0554      1.00000
    261      -2.0154      1.00000
    262      -2.0063      1.00000
    263      -1.8842      1.00000
    264      -1.8700      1.00000
    265      -1.8600      1.00000
    266      -1.8592      1.00000
    267      -1.8559      1.00000
    268      -1.8414      1.00000
    269      -1.6894      1.00000
    270      -1.6865      1.00000
    271      -1.6345      1.00000
    272      -1.5201      1.00000
    273      -1.5141      1.00000
    274      -1.5095      1.00000
    275      -1.5086      1.00000
    276      -1.5009      1.00000
    277      -1.4964      1.00000
    278      -1.4951      1.00000
    279      -1.4914      1.00000
    280      -1.4561      1.00000
    281      -1.4429      1.00000
    282      -1.4153      1.00000
    283      -1.4126      1.00000
    284      -1.3611      1.00000
    285      -1.3606      1.00000
    286      -1.3439      1.00000
    287      -1.3436      1.00000
    288      -1.3432      1.00000
    289      -1.3429      1.00000
    290      -1.2806      1.00000
    291      -1.2572      1.00000
    292      -1.2518      1.00000
    293      -1.2515      1.00000
    294      -1.2509      1.00000
    295      -1.2338      1.00000
    296      -1.2319      1.00000
    297      -1.2295      1.00000
    298      -1.2269      1.00000
    299      -1.1077      1.00000
    300      -1.1067      1.00000
    301      -1.0850      1.00000
    302      -1.0847      1.00000
    303      -1.0844      1.00000
    304      -1.0841      1.00000
    305      -0.9607      1.00000
    306      -0.2725      1.00000
    307       1.0360      0.14785
    308       1.2737      0.00320
    309       1.2770      0.00298
    310       1.2909      0.00220
    311       1.3010      0.00175
    312       1.3019      0.00172
    313       1.3097      0.00144
    314       1.3140      0.00130
    315       1.3222      0.00107
    316       1.3273      0.00095
    317       1.3326      0.00084
    318       1.3369      0.00075
    319       1.4668      0.00002
    320       1.5216      0.00000
    321       1.5245      0.00000
    322       1.5254      0.00000
    323       1.5709      0.00000
    324       1.5824      0.00000
    325       1.5861      0.00000
    326       1.5866      0.00000
    327       1.5939      0.00000
    328       1.6070      0.00000
    329       1.6187      0.00000
    330       1.6233      0.00000
    331       1.6265      0.00000
    332       1.6284      0.00000
    333       1.6296      0.00000
    334       1.6415      0.00000
    335       1.6562      0.00000
    336       1.6569      0.00000
    337       1.6597      0.00000
    338       1.6601      0.00000
    339       1.6654      0.00000
    340       1.6698      0.00000
    341       1.6703      0.00000
    342       1.6796      0.00000
    343       1.6873      0.00000
    344       1.7633      0.00000
    345       1.7643      0.00000
    346       1.7648      0.00000
    347       1.7653      0.00000
    348       1.7958      0.00000
    349       1.7995      0.00000
    350       1.8008      0.00000
    351       1.8386      0.00000
    352       1.9808      0.00000
    353       1.9970      0.00000
    354       1.9982      0.00000
    355       2.0370      0.00000
    356       2.0373      0.00000
    357       2.0394      0.00000
    358       2.0408      0.00000
    359       2.0442      0.00000
    360       2.0727      0.00000
    361       2.0752      0.00000
    362       2.0755      0.00000
    363       2.0942      0.00000
    364       2.1300      0.00000
    365       2.1386      0.00000
    366       2.1415      0.00000
    367       2.1446      0.00000
    368       2.1464      0.00000
    369       2.1480      0.00000
    370       2.1537      0.00000
    371       2.1543      0.00000
    372       2.1566      0.00000
    373       2.1774      0.00000
    374       2.1847      0.00000
    375       2.1878      0.00000
    376       2.1906      0.00000
    377       2.2049      0.00000
    378       2.2111      0.00000
    379       2.2165      0.00000
    380       2.2419      0.00000
    381       2.2748      0.00000
    382       2.2783      0.00000
    383       2.2846      0.00000
    384       2.2869      0.00000
    385       2.2900      0.00000
    386       2.2980      0.00000
    387       2.3017      0.00000
    388       2.4023      0.00000
    389       2.4518      0.00000
    390       2.5243      0.00000
    391       2.5248      0.00000
    392       2.5257      0.00000
    393       2.5263      0.00000
    394       2.5310      0.00000
    395       2.5312      0.00000
    396       2.6259      0.00000
    397       2.6363      0.00000
    398       2.6387      0.00000
    399       2.6433      0.00000
    400       2.6464      0.00000
    401       2.6505      0.00000
    402       2.9983      0.00000
    403       3.0028      0.00000
    404       3.0065      0.00000
    405       3.0090      0.00000
    406       3.0115      0.00000
    407       3.0202      0.00000
    408       3.0234      0.00000
    409       3.0257      0.00000
    410       3.0277      0.00000
    411       3.1997      0.00000
    412       3.2000      0.00000
    413       3.2006      0.00000
    414       3.2010      0.00000
    415       3.2124      0.00000
    416       3.2131      0.00000
    417       3.3576      0.00000
    418       3.4535      0.00000
    419       3.4562      0.00000
    420       3.4803      0.00000
    421       3.4841      0.00000
    422       3.4937      0.00000

 k-point     2 :       0.3333    0.0000    0.0000
  band No.  band energies     occupation 
      1     -27.1546      1.00000
      2     -18.3128      1.00000
      3     -15.9325      1.00000
      4     -15.4297      1.00000
      5     -15.2304      1.00000
      6     -14.7884      1.00000
      7     -14.5926      1.00000
      8     -14.5027      1.00000
      9     -14.3091      1.00000
     10     -14.2455      1.00000
     11     -14.2383      1.00000
     12     -14.0527      1.00000
     13     -14.0494      1.00000
     14     -13.7888      1.00000
     15     -13.7732      1.00000
     16     -13.6739      1.00000
     17     -13.6050      1.00000
     18     -13.5927      1.00000
     19     -13.5846      1.00000
     20     -13.5268      1.00000
     21     -13.4215      1.00000
     22     -13.4130      1.00000
     23     -13.4091      1.00000
     24     -13.4011      1.00000
     25     -13.3902      1.00000
     26     -13.3838      1.00000
     27     -13.2789      1.00000
     28     -13.2471      1.00000
     29     -13.2378      1.00000
     30     -13.2264      1.00000
     31     -13.1763      1.00000
     32     -13.1644      1.00000
     33     -13.1616      1.00000
     34     -13.1561      1.00000
     35     -13.1493      1.00000
     36     -13.0644      1.00000
     37     -13.0539      1.00000
     38     -13.0456      1.00000
     39     -13.0226      1.00000
     40     -13.0137      1.00000
     41     -13.0083      1.00000
     42     -12.9680      1.00000
     43     -12.9576      1.00000
     44     -12.9530      1.00000
     45     -12.9442      1.00000
     46     -12.8937      1.00000
     47     -12.8852      1.00000
     48     -12.8799      1.00000
     49     -12.8675      1.00000
     50     -12.8643      1.00000
     51     -12.8575      1.00000
     52     -12.8247      1.00000
     53     -12.8174      1.00000
     54     -12.7941      1.00000
     55     -12.7849      1.00000
     56     -12.7824      1.00000
     57     -12.7741      1.00000
     58     -12.7702      1.00000
     59     -12.7644      1.00000
     60     -12.6946      1.00000
     61     -12.6826      1.00000
     62     -12.6772      1.00000
     63     -12.6443      1.00000
     64     -12.6424      1.00000
     65     -12.6382      1.00000
     66     -12.6281      1.00000
     67     -12.6238      1.00000
     68     -12.6162      1.00000
     69     -12.5077      1.00000
     70     -12.5033      1.00000
     71     -12.1148      1.00000
     72     -10.7131      1.00000
     73      -9.0161      1.00000
     74      -8.9965      1.00000
     75      -7.4651      1.00000
     76      -7.0983      1.00000
     77      -6.9212      1.00000
     78      -6.5513      1.00000
     79      -6.4528      1.00000
     80      -6.4418      1.00000
     81      -6.4185      1.00000
     82      -6.3249      1.00000
     83      -6.2396      1.00000
     84      -6.2314      1.00000
     85      -6.2030      1.00000
     86      -6.1518      1.00000
     87      -6.1125      1.00000
     88      -6.1076      1.00000
     89      -6.0516      1.00000
     90      -6.0342      1.00000
     91      -6.0272      1.00000
     92      -5.9818      1.00000
     93      -5.9571      1.00000
     94      -5.9367      1.00000
     95      -5.9303      1.00000
     96      -5.9189      1.00000
     97      -5.9116      1.00000
     98      -5.9034      1.00000
     99      -5.8916      1.00000
    100      -5.8784      1.00000
    101      -5.8723      1.00000
    102      -5.8370      1.00000
    103      -5.8048      1.00000
    104      -5.7846      1.00000
    105      -5.7741      1.00000
    106      -5.7128      1.00000
    107      -5.7008      1.00000
    108      -5.6706      1.00000
    109      -5.6664      1.00000
    110      -5.6607      1.00000
    111      -5.6475      1.00000
    112      -5.6420      1.00000
    113      -5.6130      1.00000
    114      -5.6021      1.00000
    115      -5.5961      1.00000
    116      -5.5788      1.00000
    117      -5.5711      1.00000
    118      -5.5127      1.00000
    119      -5.5061      1.00000
    120      -5.4969      1.00000
    121      -5.4928      1.00000
    122      -5.4906      1.00000
    123      -5.4835      1.00000
    124      -5.4647      1.00000
    125      -5.2974      1.00000
    126      -5.1367      1.00000
    127      -5.1260      1.00000
    128      -5.0679      1.00000
    129      -5.0056      1.00000
    130      -4.9820      1.00000
    131      -4.9703      1.00000
    132      -4.8883      1.00000
    133      -4.8762      1.00000
    134      -4.8593      1.00000
    135      -4.8421      1.00000
    136      -4.8018      1.00000
    137      -4.7920      1.00000
[...]
     12.63700      9.17500      7.79200         0.057291      0.009246     -0.003445
     15.79700      9.17500      7.79200        -0.012294     -0.046583      0.001520
      0.00000      0.00000      1.59600         0.015094      0.002053      0.018303
      3.15900      0.00000      1.59600         0.015469      0.001449      0.025020
      6.31900      0.00000      1.59600        -0.006408      0.001197      0.018266
      9.47800      0.00000      1.59600         0.005422      0.010572      0.026600
      1.58000      2.75100      1.59600        -0.007514      0.005517      0.024739
      4.73900      2.75100      1.59600         0.001186      0.010523      0.024609
      7.89800      2.75100      1.59600         0.016514      0.003323      0.027034
     11.05800      2.75100      1.59600        -0.013686      0.004189      0.026917
      3.15900      5.50200      1.59600         0.010331      0.005603      0.024381
      6.31900      5.50200      1.59600        -0.008150      0.006081      0.025069
      9.47800      5.50200      1.59600         0.001296      0.007714      0.018142
     12.63700      5.50200      1.59600         0.010349      0.007366      0.025154
      4.73900      8.25300      1.59600         0.011777      0.008162      0.024893
      7.89800      8.25300      1.59600         0.010649      0.007382      0.024972
     11.05800      8.25300      1.59600        -0.006652      0.008577      0.025021
     14.21700      8.25300      1.59600         0.001258      0.010670      0.024882
     12.63700      0.00300      6.22000         0.014486     -0.005954      0.136660
      3.15900      0.00300      6.22000         0.005231     -0.004985      0.132875
      6.31900      0.00300      6.22000        -0.012461     -0.004749      0.132666
      9.47800      0.00300      6.22000         0.002054      0.011957      0.117750
     14.21700      2.75400      6.22000        -0.008284      0.012104      0.136788
      4.73900      2.75400      6.22000         0.006664      0.014232      0.138414
      7.89800      2.75400      6.22000         0.016050     -0.002723      0.110170
     11.05800      2.75400      6.22000        -0.014340     -0.000943      0.111993
     15.79700      5.50500      6.22000        -0.004204      0.000288      0.142400
      6.31900      5.50500      6.22000        -0.011953     -0.010286      0.137843
      9.47800      5.50500      6.22000        -0.002347      0.010205      0.127961
     12.63700      5.50500      6.22000         0.017519     -0.011192      0.134084
     17.37600      8.25600      6.22000        -0.000736     -0.004408      0.139334
      7.89800      8.25600      6.22000         0.008670     -0.000718      0.133707
     11.05800      8.25600      6.22000        -0.005855      0.002656      0.123893
     14.21700      8.25600      6.22000         0.009278     -0.001418      0.141308
     12.63800      0.00200      9.36600         0.019051     -0.000922     -0.193967
      3.16000      0.00300      9.36500        -0.001681      0.004251     -0.186795
      6.32000      0.00400      9.36500        -0.039785     -0.024720     -0.179811
      9.47800      0.00300      9.36500         0.000644      0.137271     -0.068579
     14.21600      2.75500      9.36500         0.029989     -0.009330     -0.181702
      4.74000      2.75400      9.36400        -0.040202      0.004471     -0.171079
      7.89900      2.75400      9.36600         0.193371     -0.104257     -0.002652
     11.05700      2.75400      9.36600        -0.160777     -0.090404     -0.032158
     15.79600      5.50500      9.36600         0.004783      0.006537     -0.208333
      6.31900      5.50500      9.36600        -0.031761      0.033736     -0.200339
      9.48000      5.50800      9.36300        -0.041122     -0.052150     -0.541426
     12.63800      5.50600      9.36500         0.020382      0.018942     -0.185199
      4.74100      8.25600      9.36600        -0.000456     -0.017029     -0.191105
      7.89900      8.25600      9.36500        -0.025008      0.019689     -0.205408
     11.05800      8.25400      9.35900         0.017430      0.044542     -0.114302
     14.21700      8.25700      9.36500        -0.013521     -0.021447     -0.182158
      1.58000      0.91900      0.02500        -0.005717     -0.000724      0.157701
      4.73900      0.91900      0.02500        -0.001264     -0.001673      0.160953
      7.89800      0.91900      0.02500         0.004795     -0.000090      0.154357
     11.05800      0.91900      0.02500        -0.005459     -0.000961      0.156074
      3.15900      3.67000      0.02500         0.004893      0.000882      0.156948
      6.31900      3.67000      0.02500        -0.005037     -0.000278      0.157991
      9.47800      3.67000      0.02500         0.000779     -0.002226      0.158000
     12.63700      3.67000      0.02500         0.003651      0.000729      0.156535
      4.73900      6.42100      0.02500         0.000549     -0.002385      0.160996
      7.89800      6.42100      0.02500         0.005599      0.000010      0.158137
     11.05800      6.42100      0.02500        -0.005079     -0.000991      0.157937
     14.21700      6.42100      0.02500        -0.003063     -0.000682      0.157229
      6.31900      9.17200      0.02500        -0.005514      0.001877      0.158994
      9.47800      9.17200      0.02500        -0.001231      0.000030      0.162296
     12.63700      9.17200      0.02500         0.005653      0.002105      0.159162
     15.79700      9.17200      0.02500        -0.006765      0.001888      0.159167
      1.58000      0.91900      3.16800        -0.005258     -0.004858     -0.130391
      4.73900      0.91900      3.16800        -0.001649     -0.005704     -0.133285
      7.89800      0.91900      3.16800         0.006861     -0.002688     -0.126470
     11.05800      0.91900      3.16800        -0.009534     -0.002496     -0.126584
      3.15900      3.67000      3.16800         0.004881     -0.003002     -0.131816
      6.31900      3.67000      3.16800        -0.007825     -0.002733     -0.128599
      9.47800      3.67000      3.16800        -0.001290     -0.008077     -0.130075
     12.63700      3.67000      3.16800         0.004486     -0.002773     -0.128850
      4.73900      6.42100      3.16800        -0.001363     -0.005557     -0.134106
      7.89800      6.42100      3.16800         0.003768     -0.002681     -0.130504
     11.05800      6.42100      3.16800        -0.007018     -0.002817     -0.130564
     14.21700      6.42100      3.16800        -0.006037     -0.003024     -0.131159
      6.31900      9.17200      3.16800        -0.006498     -0.001295     -0.132317
      9.47800      9.17200      3.16800        -0.004168     -0.001742     -0.136634
     12.63700      9.17200      3.16800         0.002450     -0.000482     -0.131994
     15.79700      9.17200      3.16800        -0.008081     -0.001421     -0.132752
      9.41000      4.08000     12.46100         0.075220      3.483996     -0.406325
     10.63600      4.75000     12.41500         0.058323     -0.548985      0.073980
     10.65900      6.14600     12.36400        -0.063586      0.019191      0.186858
      9.46400      6.87100     12.35400        -0.002214     -0.210709      0.112793
      8.24200      6.19300     12.38700         0.066801      0.056238      0.168140
      8.21100      4.79800     12.43800        -0.073413     -0.571043      0.052883
     11.55900      4.16700     12.41200         0.061379      0.081671     -0.081497
     11.61700      6.66900     12.32900        -0.035318     -0.083977     -0.062289
      9.48500      7.96100     12.31400        -0.001895     -0.030261     -0.069990
      7.30500      6.75400     12.37100         0.033833     -0.090407     -0.063520
      7.26600      4.25200     12.45300        -0.065958      0.077096     -0.080768
      9.38800      2.35400     13.36700         0.003772     -1.380171      0.199818
      9.38200      2.27400     11.60900        -0.027515     -2.209808     -3.034720
      9.38200      2.68400     12.45200        -0.029562      1.461732      2.754956
 -----------------------------------------------------------------------------------
    total drift:                                0.046890     -0.038452      0.201998


--------------------------------------------------------------------------------------------------------



  FREE ENERGIE OF THE ION-ELECTRON SYSTEM (eV)
  ---------------------------------------------------
  free  energy   TOTEN  =      -816.49155008 eV

  energy  without entropy=     -816.27330749  energy(sigma->0) =     -816.38242878



--------------------------------------------------------------------------------------------------------


    POTLOK:  cpu time    3.0205: real time    3.0205


--------------------------------------------------------------------------------------------------------


 writing wavefunctions
     LOOP+:  cpu time 6241.5349: real time 6243.9792
    4ORBIT:  cpu time    0.0000: real time    0.0000



 total charge     

# of ion       s       p       d       tot
------------------------------------------
    1        0.417   0.600   4.401   5.418
    2        0.417   0.600   4.402   5.419
    3        0.416   0.600   4.406   5.421
    4        0.416   0.599   4.405   5.420
    5        0.417   0.600   4.402   5.418
    6        0.415   0.598   4.404   5.417
    7        0.416   0.599   4.407   5.422
    8        0.415   0.598   4.403   5.417
    9        0.416   0.599   4.401   5.417
   10        0.417   0.600   4.403   5.420
   11        0.417   0.602   4.406   5.425
   12        0.416   0.600   4.402   5.418
   13        0.417   0.600   4.402   5.419
   14        0.417   0.600   4.404   5.421
   15        0.417   0.600   4.403   5.420
   16        0.416   0.599   4.401   5.416
   17        0.417   0.602   4.402   5.420
   18        0.417   0.602   4.402   5.420
   19        0.417   0.602   4.402   5.420
   20        0.417   0.601   4.401   5.420
   21        0.417   0.602   4.402   5.421
   22        0.417   0.602   4.402   5.420
   23        0.417   0.602   4.402   5.421
   24        0.417   0.602   4.402   5.421
   25        0.417   0.602   4.402   5.421
   26        0.417   0.602   4.402   5.421
   27        0.417   0.602   4.402   5.420
   28        0.417   0.602   4.402   5.421
   29        0.417   0.602   4.402   5.421
   30        0.417   0.602   4.402   5.421
   31        0.417   0.602   4.402   5.420
   32        0.417   0.602   4.401   5.420
   33        1.367   2.328   0.000   3.695
   34        1.367   2.328   0.000   3.695
   35        1.367   2.328   0.000   3.695
   36        1.367   2.327   0.000   3.694
   37        1.367   2.328   0.000   3.695
   38        1.367   2.327   0.000   3.694
   39        1.367   2.328   0.000   3.695
   40        1.367   2.328   0.000   3.695
   41        1.367   2.328   0.000   3.695
   42        1.367   2.328   0.000   3.694
   43        1.367   2.328   0.000   3.695
   44        1.367   2.328   0.000   3.695
   45        1.367   2.328   0.000   3.694
   46        1.367   2.328   0.000   3.695
   47        1.367   2.328   0.000   3.695
   48        1.367   2.327   0.000   3.694
   49        1.361   2.338   0.000   3.700
   50        1.362   2.337   0.000   3.699
   51        1.361   2.339   0.000   3.700
   52        1.359   2.344   0.000   3.703
   53        1.362   2.338   0.000   3.700
   54        1.362   2.339   0.000   3.700
   55        1.355   2.355   0.000   3.709
   56        1.356   2.353   0.000   3.709
   57        1.362   2.336   0.000   3.699
   58        1.361   2.342   0.000   3.703
   59        1.364   2.343   0.000   3.707
   60        1.361   2.342   0.000   3.703
   61        1.362   2.338   0.000   3.699
   62        1.361   2.342   0.000   3.702
   63        1.361   2.344   0.000   3.704
   64        1.362   2.338   0.000   3.700
   65        1.364   2.332   0.000   3.697
   66        1.364   2.332   0.000   3.696
   67        1.364   2.333   0.000   3.697
   68        1.364   2.333   0.000   3.697
   69        1.364   2.333   0.000   3.697
   70        1.364   2.333   0.000   3.697
   71        1.364   2.332   0.000   3.696
   72        1.364   2.333   0.000   3.697
   73        1.364   2.332   0.000   3.696
   74        1.364   2.333   0.000   3.697
   75        1.364   2.332   0.000   3.697
   76        1.364   2.332   0.000   3.697
   77        1.364   2.332   0.000   3.696
   78        1.364   2.332   0.000   3.696
   79        1.364   2.332   0.000   3.696
   80        1.364   2.332   0.000   3.696
   81        1.366   2.331   0.000   3.696
   82        1.366   2.331   0.000   3.696
   83        1.366   2.330   0.000   3.696
   84        1.366   2.330   0.000   3.696
   85        1.366   2.331   0.000   3.696
   86        1.366   2.331   0.000   3.696
   87        1.366   2.330   0.000   3.696
   88        1.366   2.331   0.000   3.696
   89        1.366   2.330   0.000   3.696
   90        1.366   2.331   0.000   3.696
   91        1.366   2.331   0.000   3.696
   92        1.366   2.331   0.000   3.696
   93        1.366   2.331   0.000   3.696
   94        1.366   2.330   0.000   3.696
   95        1.366   2.331   0.000   3.696
   96        1.366   2.331   0.000   3.696
   97        0.855   1.750   0.000   2.605
   98        0.874   1.775   0.000   2.649
   99        0.872   1.767   0.000   2.640
  100        0.875   1.765   0.000   2.639
  101        0.872   1.768   0.000   2.640
  102        0.874   1.775   0.000   2.650
  103        0.639   0.045   0.000   0.684
  104        0.641   0.044   0.000   0.685
  105        0.643   0.044   0.000   0.687
  106        0.641   0.044   0.000   0.685
  107        0.639   0.045   0.000   0.684
  108        0.580   0.119   0.000   0.698
  109        0.606   0.152   0.000   0.758
  110        1.565   3.812   0.000   5.377
--------------------------------------------------
tot        111.830 183.442 140.880 436.152



 magnetization (x)

# of ion       s       p       d       tot
------------------------------------------
    1       -0.000   0.000   0.000   0.000
    2       -0.000   0.000   0.000   0.000
    3       -0.000  -0.000  -0.000  -0.000
    4       -0.000  -0.000  -0.000  -0.000
    5       -0.000   0.000  -0.000  -0.000
    6       -0.000  -0.000  -0.000  -0.000
    7       -0.000  -0.000  -0.000  -0.000
    8       -0.000  -0.000  -0.000  -0.000
    9       -0.000   0.000  -0.000  -0.000
   10        0.000   0.000   0.000   0.000
   11        0.000   0.000   0.000   0.000
   12       -0.000   0.000  -0.000  -0.000
   13        0.000   0.000   0.000   0.000
   14       -0.000  -0.000  -0.000  -0.000
   15       -0.000   0.000   0.000   0.000
   16       -0.000  -0.000  -0.000  -0.000
   17        0.000   0.000   0.000   0.000
   18        0.000   0.000   0.000   0.000
   19        0.000   0.000   0.000   0.000
   20       -0.000   0.000   0.000   0.000
   21       -0.000   0.000   0.000   0.000
   22       -0.000   0.000   0.000   0.000
   23       -0.000   0.000   0.000   0.000
   24       -0.000   0.000   0.000   0.000
   25        0.000   0.000   0.000   0.000
   26       -0.000   0.000   0.000   0.000
   27        0.000   0.000   0.000   0.000
   28       -0.000   0.000   0.000   0.000
   29        0.000   0.000   0.000   0.000
   30        0.000   0.000   0.000   0.000
   31        0.000   0.000   0.000   0.000
   32        0.000   0.000   0.000   0.000
   33       -0.000  -0.000   0.000  -0.000
   34       -0.000  -0.000   0.000  -0.000
   35       -0.000  -0.000   0.000  -0.000
   36       -0.000  -0.000   0.000  -0.000
   37        0.000  -0.000   0.000  -0.000
   38        0.000  -0.000   0.000  -0.000
   39        0.000  -0.000   0.000  -0.000
   40        0.000  -0.000   0.000  -0.000
   41       -0.000   0.000   0.000   0.000
   42        0.000  -0.000   0.000  -0.000
   43        0.000  -0.000   0.000  -0.000
   44        0.000  -0.000   0.000  -0.000
   45        0.000  -0.000   0.000  -0.000
   46       -0.000  -0.000   0.000  -0.000
   47       -0.000  -0.000   0.000  -0.000
   48        0.000  -0.000   0.000  -0.000
   49       -0.000  -0.000   0.000  -0.000
   50       -0.000   0.000   0.000  -0.000
   51       -0.000  -0.000   0.000  -0.000
   52       -0.000  -0.000   0.000  -0.000
   53       -0.000  -0.000   0.000  -0.000
   54       -0.000  -0.000   0.000  -0.000
   55       -0.000   0.000   0.000  -0.000
   56       -0.000   0.000   0.000  -0.000
   57       -0.000  -0.000   0.000  -0.000
   58       -0.000  -0.000   0.000  -0.000
   59       -0.000  -0.000   0.000  -0.000
   60       -0.000  -0.000   0.000  -0.000
   61       -0.000  -0.000   0.000  -0.000
   62       -0.000   0.000   0.000  -0.000
   63       -0.000   0.000   0.000  -0.000
   64       -0.000  -0.000   0.000  -0.000
   65        0.000   0.000   0.000   0.000
   66        0.000  -0.000   0.000  -0.000
   67        0.000  -0.000   0.000  -0.000
   68        0.000  -0.000   0.000  -0.000
   69        0.000   0.000   0.000   0.000
   70        0.000  -0.000   0.000  -0.000
   71        0.000  -0.000   0.000  -0.000
   72        0.000  -0.000   0.000  -0.000
   73        0.000  -0.000   0.000  -0.000
   74        0.000   0.000   0.000   0.000
   75        0.000  -0.000   0.000   0.000
   76        0.000  -0.000   0.000   0.000
   77        0.000  -0.000   0.000  -0.000
   78        0.000  -0.000   0.000  -0.000
   79        0.000  -0.000   0.000  -0.000
   80        0.000   0.000   0.000   0.000
   81        0.000  -0.000   0.000  -0.000
   82        0.000  -0.000   0.000  -0.000
   83       -0.000  -0.000   0.000  -0.000
   84       -0.000  -0.000   0.000  -0.000
   85        0.000  -0.000   0.000  -0.000
   86        0.000  -0.000   0.000  -0.000
   87       -0.000  -0.000   0.000  -0.000
   88        0.000  -0.000   0.000  -0.000
   89        0.000  -0.000   0.000  -0.000
   90        0.000  -0.000   0.000  -0.000
   91        0.000  -0.000   0.000  -0.000
   92       -0.000  -0.000   0.000  -0.000
   93        0.000  -0.000   0.000  -0.000
   94       -0.000  -0.000   0.000  -0.000
   95        0.000  -0.000   0.000  -0.000
   96        0.000  -0.000   0.000  -0.000
   97       -0.000  -0.000   0.000  -0.000
   98       -0.000  -0.000   0.000  -0.000
   99       -0.000  -0.000   0.000  -0.000
  100       -0.000  -0.000   0.000  -0.000
  101       -0.000  -0.000   0.000  -0.000
  102       -0.000  -0.000   0.000  -0.000
  103       -0.000  -0.000   0.000  -0.000
  104       -0.000  -0.000   0.000  -0.000
  105        0.000  -0.000   0.000  -0.000
  106       -0.000  -0.000   0.000  -0.000
  107       -0.000  -0.000   0.000  -0.000
  108       -0.000  -0.000   0.000  -0.000
  109       -0.000  -0.000   0.000  -0.000
  110       -0.000   0.000   0.000  -0.000
--------------------------------------------------
tot         -0.000  -0.000  -0.000  -0.000


 total amount of memory used by VASP MPI-rank0  1529896. kBytes
=======================================================================

   base      :      30000. kBytes
   nonlr-proj:       9090. kBytes
   fftplans  :      46167. kBytes
   grid      :     140836. kBytes
   one-center:        870. kBytes
   wavefun   :    1302933. kBytes

  
  
 General timing and accounting informations for this job:
 ========================================================
  
                  Total CPU time used (sec):     6377.916
                            User time (sec):     6323.001
                          System time (sec):       54.915
                         Elapsed time (sec):     6380.581
  
                   Maximum memory used (kb):     1625836.
                   Average memory used (kb):           0.
  
                          Minor page faults:       479900
                          Major page faults:            0
                 Voluntary context switches:         1191
