  14  14   1   0
  0.2410714E+03  0.1500000E-08  0.1500000E-08  0.1500000E-08  0.5000000E-15
   1.0000000000000000E-004
  CAR 
 scf                                     
      3.18675414    -31.30567343  301     -2.00397430      1.00000000
    -31.306  0.0000E+00  0.0000E+00  0.0000E+00  0.0000E+00
    -31.191  0.0000E+00  0.0000E+00  0.0000E+00  0.0000E+00
    -31.076  0.0000E+00  0.0000E+00  0.0000E+00  0.0000E+00
    -30.961  0.0000E+00  0.0000E+00  0.0000E+00  0.0000E+00
    -30.846  0.0000E+00  0.0000E+00  0.0000E+00  0.0000E+00
    -30.731  0.0000E+00  0.0000E+00  0.0000E+00  0.0000E+00
    -30.616  0.0000E+00  0.0000E+00  0.0000E+00  0.0000E+00
    -30.501  0.0000E+00  0.0000E+00  0.0000E+00  0.0000E+00
    -30.386  0.9560E-13  0.0000E+00  0.1099E-13  0.0000E+00
    -30.271  0.3809E-10  0.1545E-13  0.4391E-11  0.1776E-14
    -30.156  0.7921E-08  0.7317E-11  0.9152E-09  0.8430E-12
    -30.041  0.8624E-06  0.1833E-08  0.1001E-06  0.2115E-09
    -29.926  0.4929E-04  0.2401E-06  0.5767E-05  0.2782E-07
    -29.811  0.1483E-02  0.1650E-04  0.1763E-03  0.1925E-05
    -29.696  0.2359E-01  0.5967E-03  0.2888E-02  0.7054E-04
    -29.581  0.1989E+00  0.1139E-01  0.2575E-01  0.1380E-02
    -29.466  0.8923E+00  0.1151E+00  0.1283E+00  0.1462E-01
    -29.351  0.2137E+01  0.6188E+00  0.3740E+00  0.8577E-01
    -29.236  0.2736E+01  0.1774E+01  0.6886E+00  0.2897E+00
    -29.121  0.1874E+01  0.2717E+01  0.9040E+00  0.6021E+00
    -29.006  0.6861E+00  0.2227E+01  0.9829E+00  0.8581E+00
    -28.891  0.1340E+00  0.9758E+00  0.9983E+00  0.9703E+00
    -28.776  0.1392E-01  0.2283E+00  0.9999E+00  0.9965E+00
    -28.661  0.7658E-03  0.2842E-01  0.1000E+01  0.9998E+00
    -28.546  0.2225E-04  0.1877E-02  0.1000E+01  0.1000E+01
    -28.431  0.3402E-06  0.6552E-04  0.1000E+01  0.1000E+01
    -28.316  0.2728E-08  0.1205E-05  0.1000E+01  0.1000E+01
    -28.201  0.1145E-10  0.1163E-07  0.1000E+01  0.1000E+01
    -28.086  0.2511E-13  0.5877E-10  0.1000E+01  0.1000E+01
    -27.971  0.0000E+00  0.1555E-12  0.1000E+01  0.1000E+01
    -27.856  0.0000E+00  0.0000E+00  0.1000E+01  0.1000E+01
    -27.741  0.0000E+00  0.0000E+00  0.1000E+01  0.1000E+01
    -27.626  0.0000E+00  0.0000E+00  0.1000E+01  0.1000E+01
    -27.512  0.0000E+00  0.0000E+00  0.1000E+01  0.1000E+01
    -27.397  0.0000E+00  0.0000E+00  0.1000E+01  0.1000E+01
    -27.282  0.0000E+00  0.0000E+00  0.1000E+01  0.1000E+01
    -27.167  0.0000E+00  0.0000E+00  0.1000E+01  0.1000E+01
    -27.052  0.0000E+00  0.0000E+00  0.1000E+01  0.1000E+01
    -26.937  0.0000E+00  0.0000E+00  0.1000E+01  0.1000E+01
    -26.822  0.0000E+00  0.0000E+00  0.1000E+01  0.1000E+01
    -26.707  0.0000E+00  0.0000E+00  0.1000E+01  0.1000E+01
    -26.592  0.0000E+00  0.0000E+00  0.1000E+01  0.1000E+01
    -26.477  0.0000E+00  0.0000E+00  0.1000E+01  0.1000E+01
    -26.362  0.0000E+00  0.0000E+00  0.1000E+01  0.1000E+01
    -26.247  0.0000E+00  0.0000E+00  0.1000E+01  0.1000E+01
    -26.132  0.0000E+00  0.0000E+00  0.1000E+01  0.1000E+01
    -26.017  0.0000E+00  0.0000E+00  0.1000E+01  0.1000E+01
    -25.902  0.0000E+00  0.0000E+00  0.1000E+01  0.1000E+01
    -25.787  0.0000E+00  0.0000E+00  0.1000E+01  0.1000E+01
    -25.672  0.0000E+00  0.0000E+00  0.1000E+01  0.1000E+01
    -25.557  0.0000E+00  0.0000E+00  0.1000E+01  0.1000E+01
    -25.442  0.0000E+00  0.0000E+00  0.1000E+01  0.1000E+01
    -25.327  0.0000E+00  0.0000E+00  0.1000E+01  0.1000E+01
    -25.212  0.0000E+00  0.0000E+00  0.1000E+01  0.1000E+01
    -25.097  0.0000E+00  0.0000E+00  0.1000E+01  0.1000E+01
    -24.982  0.0000E+00  0.0000E+00  0.1000E+01  0.1000E+01
    -24.867  0.0000E+00  0.0000E+00  0.1000E+01  0.1000E+01
    -24.752  0.0000E+00  0.0000E+00  0.1000E+01  0.1000E+01
    -24.637  0.0000E+00  0.0000E+00  0.1000E+01  0.1000E+01
    -24.522  0.0000E+00  0.0000E+00  0.1000E+01  0.1000E+01
    -24.407  0.0000E+00  0.0000E+00  0.1000E+01  0.1000E+01
    -24.292  0.0000E+00  0.0000E+00  0.1000E+01  0.1000E+01
    -24.177  0.0000E+00  0.0000E+00  0.1000E+01  0.1000E+01
    -24.062  0.0000E+00  0.0000E+00  0.1000E+01  0.1000E+01
    -23.947  0.0000E+00  0.0000E+00  0.1000E+01  0.1000E+01
    -23.832  0.0000E+00  0.0000E+00  0.1000E+01  0.1000E+01
    -23.717  0.0000E+00  0.0000E+00  0.1000E+01  0.1000E+01
    -23.602  0.0000E+00  0.0000E+00  0.1000E+01  0.1000E+01
    -23.487  0.0000E+00  0.0000E+00  0.1000E+01  0.1000E+01
    -23.372  0.0000E+00  0.0000E+00  0.1000E+01  0.1000E+01
    -23.257  0.0000E+00  0.0000E+00  0.1000E+01  0.1000E+01
    -23.142  0.0000E+00  0.0000E+00  0.1000E+01  0.1000E+01
    -23.027  0.0000E+00  0.0000E+00  0.1000E+01  0.1000E+01
    -22.913  0.0000E+00  0.0000E+00  0.1000E+01  0.1000E+01
    -22.798  0.2414E-14  0.4828E-15  0.1000E+01  0.1000E+01
    -22.683  0.1315E-11  0.3505E-12  0.1000E+01  0.1000E+01
    -22.568  0.3973E-09  0.1219E-09  0.1000E+01  0.1000E+01
    -22.453  0.6277E-07  0.2215E-07  0.1000E+01  0.1000E+01
    -22.338  0.5196E-05  0.2109E-05  0.1000E+01  0.1000E+01
    -22.223  0.2261E-03  0.1054E-03  0.1000E+01  0.1000E+01
    -22.108  0.5188E-02  0.2778E-02  0.1001E+01  0.1000E+01
    -21.993  0.6299E-01  0.3871E-01  0.1008E+01  0.1005E+01
    -21.878  0.4062E+00  0.2862E+00  0.1055E+01  0.1038E+01
    -21.763  0.1396E+01  0.1127E+01  0.1215E+01  0.1167E+01
    -21.648  0.2561E+01  0.2368E+01  0.1510E+01  0.1440E+01
    -21.533  0.2515E+01  0.2662E+01  0.1799E+01  0.1746E+01
    -21.418  0.1321E+01  0.1601E+01  0.1951E+01  0.1930E+01
    -21.303  0.3705E+00  0.5146E+00  0.1993E+01  0.1989E+01
    -21.188  0.5536E-01  0.8816E-01  0.1999E+01  0.1999E+01
    -21.073  0.4393E-02  0.8026E-02  0.2000E+01  0.2000E+01
    -20.958  0.1844E-03  0.3869E-03  0.2000E+01  0.2000E+01
    -20.843  0.4081E-05  0.9839E-05  0.2000E+01  0.2000E+01
    -20.728  0.4746E-07  0.1316E-06  0.2000E+01  0.2000E+01
    -20.613  0.2893E-09  0.9225E-09  0.2000E+01  0.2000E+01
    -20.498  0.9212E-12  0.3384E-11  0.2000E+01  0.2000E+01
    -20.383  0.1931E-14  0.5794E-14  0.2000E+01  0.2000E+01
    -20.268  0.0000E+00  0.0000E+00  0.2000E+01  0.2000E+01
    -20.153  0.4828E-15  0.0000E+00  0.2000E+01  0.2000E+01
    -20.038  0.3187E-12  0.1448E-13  0.2000E+01  0.2000E+01
    -19.923  0.1131E-09  0.7321E-11  0.2000E+01  0.2000E+01
    -19.808  0.2107E-07  0.1953E-08  0.2000E+01  0.2000E+01
    -19.693  0.2069E-05  0.2734E-06  0.2000E+01  0.2000E+01
    -19.578  0.1077E-03  0.2012E-04  0.2000E+01  0.2000E+01
    -19.463  0.2990E-02  0.7812E-03  0.2000E+01  0.2000E+01
    -19.348  0.4465E-01  0.1606E-01  0.2005E+01  0.2002E+01
    -19.233  0.3616E+00  0.1753E+00  0.2047E+01  0.2022E+01
    -19.118  0.1603E+01  0.1020E+01  0.2231E+01  0.2139E+01
    -19.003  0.3921E+01  0.3176E+01  0.2682E+01  0.2505E+01
    -18.888  0.5322E+01  0.5301E+01  0.3294E+01  0.3114E+01
    -18.773  0.4016E+01  0.4749E+01  0.3756E+01  0.3660E+01
    -18.658  0.1682E+01  0.2283E+01  0.3949E+01  0.3922E+01
    -18.543  0.3886E+00  0.5879E+00  0.3994E+01  0.3990E+01
    -18.429  0.4918E-01  0.8089E-01  0.4000E+01  0.3999E+01
    -18.314  0.3377E-02  0.5927E-02  0.4000E+01  0.4000E+01
    -18.199  0.1249E-03  0.2304E-03  0.4000E+01  0.4000E+01
    -18.084  0.1048E-04  0.4734E-05  0.4000E+01  0.4000E+01
    -17.969  0.3258E-03  0.5440E-07  0.4000E+01  0.4000E+01
    -17.854  0.6983E-02  0.3852E-06  0.4001E+01  0.4000E+01
    -17.739  0.7923E-01  0.2474E-04  0.4010E+01  0.4000E+01
    -17.624  0.4776E+00  0.8365E-03  0.4065E+01  0.4000E+01
    -17.509  0.1534E+01  0.1494E-01  0.4241E+01  0.4002E+01
    -17.394  0.2634E+01  0.1413E+00  0.4544E+01  0.4018E+01
    -17.279  0.2419E+01  0.7113E+00  0.4822E+01  0.4100E+01
    -17.164  0.1188E+01  0.1909E+01  0.4959E+01  0.4319E+01
    -17.049  0.3116E+00  0.2740E+01  0.4995E+01  0.4634E+01
    -16.934  0.4352E-01  0.2104E+01  0.5000E+01  0.4876E+01
    -16.819  0.3227E-02  0.8635E+00  0.5000E+01  0.4976E+01
    -16.704  0.1430E-03  0.1891E+00  0.5000E+01  0.4997E+01
    -16.589  0.5975E-03  0.2207E-01  0.5000E+01  0.5000E+01
    -16.474  0.1136E-01  0.2183E-02  0.5001E+01  0.5000E+01
    -16.359  0.1149E+00  0.1476E-01  0.5015E+01  0.5002E+01
    -16.244  0.6180E+00  0.1398E+00  0.5086E+01  0.5018E+01
    -16.129  0.1772E+01  0.7060E+00  0.5289E+01  0.5099E+01
    -16.014  0.2718E+01  0.1903E+01  0.5602E+01  0.5318E+01
    -15.899  0.2254E+01  0.2759E+01  0.5861E+01  0.5635E+01
    -15.784  0.1194E+01  0.2286E+01  0.5998E+01  0.5898E+01
    -15.669  0.1175E+01  0.1690E+01  0.6134E+01  0.6092E+01
    -15.554  0.2224E+01  0.2243E+01  0.6389E+01  0.6350E+01
    -15.439  0.2727E+01  0.2766E+01  0.6703E+01  0.6668E+01
    -15.324  0.1809E+01  0.1964E+01  0.6911E+01  0.6894E+01
    -15.209  0.6420E+00  0.7508E+00  0.6985E+01  0.6980E+01
    -15.094  0.1215E+00  0.1532E+00  0.6999E+01  0.6998E+01
    -14.979  0.1223E-01  0.1662E-01  0.7000E+01  0.7000E+01
    -14.864  0.6519E-03  0.9562E-03  0.7000E+01  0.7000E+01
    -14.749  0.1979E-04  0.2925E-04  0.7000E+01  0.7000E+01
    -14.634  0.7666E-04  0.1511E-04  0.7000E+01  0.7000E+01
    -14.519  0.2130E-02  0.5401E-03  0.7000E+01  0.7000E+01
    -14.404  0.3141E-01  0.1051E-01  0.7004E+01  0.7001E+01
    -14.289  0.2457E+00  0.1083E+00  0.7032E+01  0.7014E+01
    -14.174  0.1023E+01  0.5934E+00  0.7150E+01  0.7082E+01
    -14.059  0.2274E+01  0.1734E+01  0.7411E+01  0.7281E+01
    -13.944  0.2703E+01  0.2707E+01  0.7722E+01  0.7592E+01
    -13.830  0.1719E+01  0.2261E+01  0.7919E+01  0.7852E+01
    -13.715  0.5841E+00  0.1010E+01  0.7987E+01  0.7969E+01
    -13.600  0.1058E+00  0.2408E+00  0.7999E+01  0.7996E+01
    -13.485  0.1019E-01  0.3057E-01  0.8000E+01  0.8000E+01
    -13.370  0.5201E-03  0.2058E-02  0.8000E+01  0.8000E+01
    -13.255  0.1412E-04  0.7330E-04  0.8000E+01  0.8000E+01
    -13.140  0.9352E-05  0.5454E-05  0.8000E+01  0.8000E+01
    -13.025  0.3641E-03  0.1844E-03  0.8000E+01  0.8000E+01
    -12.910  0.7642E-02  0.4393E-02  0.8001E+01  0.8001E+01
    -12.795  0.8491E-01  0.5536E-01  0.8011E+01  0.8007E+01
    -12.680  0.5014E+00  0.3705E+00  0.8068E+01  0.8049E+01
    -12.565  0.1580E+01  0.1321E+01  0.8250E+01  0.8201E+01
    -12.450  0.2684E+01  0.2529E+01  0.8559E+01  0.8492E+01
    -12.335  0.2632E+01  0.2695E+01  0.8861E+01  0.8802E+01
    -12.220  0.2172E+01  0.2081E+01  0.9111E+01  0.9041E+01
    -12.105  0.2569E+01  0.2279E+01  0.9406E+01  0.9303E+01
    -11.990  0.2743E+01  0.2799E+01  0.9722E+01  0.9625E+01
    -11.875  0.1721E+01  0.2143E+01  0.9920E+01  0.9871E+01
    -11.760  0.5836E+00  0.8936E+00  0.9987E+01  0.9974E+01
    -11.645  0.1058E+00  0.1993E+00  0.9999E+01  0.9997E+01
    -11.530  0.1191E-01  0.2479E-01  0.1000E+02  0.1000E+02
    -11.415  0.2716E-01  0.2077E-01  0.1000E+02  0.1000E+02
    -11.300  0.2177E+00  0.1712E+00  0.1003E+02  0.1002E+02
    -11.185  0.9465E+00  0.8086E+00  0.1014E+02  0.1012E+02
    -11.070  0.2202E+01  0.2042E+01  0.1039E+02  0.1035E+02
    -10.955  0.2797E+01  0.2807E+01  0.1071E+02  0.1067E+02
    -10.840  0.2255E+01  0.2381E+01  0.1097E+02  0.1095E+02
    -10.725  0.2117E+01  0.2151E+01  0.1121E+02  0.1119E+02
    -10.610  0.2727E+01  0.2714E+01  0.1153E+02  0.1151E+02
    -10.495  0.2473E+01  0.2537E+01  0.1181E+02  0.1180E+02
    -10.380  0.1244E+01  0.1329E+01  0.1196E+02  0.1195E+02
    -10.265  0.3368E+00  0.3740E+00  0.1199E+02  0.1199E+02
    -10.150  0.7010E-01  0.5905E-01  0.1200E+02  0.1200E+02
    -10.035  0.1924E+00  0.4555E-01  0.1202E+02  0.1201E+02
     -9.920  0.8718E+00  0.3027E+00  0.1212E+02  0.1204E+02
     -9.805  0.2215E+01  0.1214E+01  0.1238E+02  0.1218E+02
     -9.690  0.3359E+01  0.2779E+01  0.1277E+02  0.1250E+02
     -9.575  0.3693E+01  0.4009E+01  0.1319E+02  0.1296E+02
     -9.460  0.3510E+01  0.4172E+01  0.1359E+02  0.1344E+02
     -9.345  0.2846E+01  0.3454E+01  0.1392E+02  0.1384E+02
     -9.231  0.2524E+01  0.2861E+01  0.1421E+02  0.1417E+02
     -9.116  0.2862E+01  0.2970E+01  0.1454E+02  0.1451E+02
     -9.001  0.2449E+01  0.2562E+01  0.1482E+02  0.1480E+02
     -8.886  0.1199E+01  0.1310E+01  0.1496E+02  0.1495E+02
     -8.771  0.3926E+00  0.4061E+00  0.1500E+02  0.1500E+02
     -8.656  0.5248E+00  0.3686E+00  0.1506E+02  0.1504E+02
     -8.541  0.1544E+01  0.1200E+01  0.1524E+02  0.1518E+02
     -8.426  0.2637E+01  0.2425E+01  0.1555E+02  0.1546E+02
     -8.311  0.2414E+01  0.2630E+01  0.1582E+02  0.1576E+02
     -8.196  0.1182E+01  0.1526E+01  0.1596E+02  0.1594E+02
     -8.081  0.3090E+00  0.4728E+00  0.1599E+02  0.1599E+02
     -7.966  0.4302E-01  0.7811E-01  0.1600E+02  0.1600E+02
     -7.851  0.3179E-02  0.6855E-02  0.1600E+02  0.1600E+02
     -7.736  0.1243E-03  0.3185E-03  0.1600E+02  0.1600E+02
     -7.621  0.2626E-05  0.7809E-05  0.1600E+02  0.1600E+02
     -7.506  0.5588E-05  0.7098E-06  0.1600E+02  0.1600E+02
     -7.391  0.2470E-03  0.3981E-04  0.1600E+02  0.1600E+02
     -7.276  0.5863E-02  0.1375E-02  0.1600E+02  0.1600E+02
     -7.161  0.7506E-01  0.2522E-01  0.1601E+02  0.1600E+02
     -7.046  0.5240E+00  0.2463E+00  0.1607E+02  0.1603E+02
     -6.931  0.2018E+01  0.1286E+01  0.1630E+02  0.1618E+02
     -6.816  0.4333E+01  0.3602E+01  0.1680E+02  0.1659E+02
     -6.701  0.5225E+01  0.5422E+01  0.1740E+02  0.1722E+02
     -6.586  0.3545E+01  0.4392E+01  0.1781E+02  0.1772E+02
     -6.471  0.1348E+01  0.1913E+01  0.1796E+02  0.1794E+02
     -6.356  0.2849E+00  0.4474E+00  0.1800E+02  0.1799E+02
     -6.241  0.3308E-01  0.5599E-01  0.1800E+02  0.1800E+02
     -6.126  0.2086E-02  0.3737E-02  0.1800E+02  0.1800E+02
     -6.011  0.7070E-04  0.1325E-03  0.1800E+02  0.1800E+02
     -5.896  0.1277E-05  0.2488E-05  0.1800E+02  0.1800E+02
     -5.781  0.1220E-07  0.2464E-07  0.1800E+02  0.1800E+02
     -5.666  0.6131E-10  0.1283E-09  0.1800E+02  0.1800E+02
     -5.551  0.1622E-12  0.3515E-12  0.1800E+02  0.1800E+02
     -5.436  0.0000E+00  0.0000E+00  0.1800E+02  0.1800E+02
     -5.321  0.0000E+00  0.0000E+00  0.1800E+02  0.1800E+02
     -5.206  0.0000E+00  0.0000E+00  0.1800E+02  0.1800E+02
     -5.091  0.0000E+00  0.0000E+00  0.1800E+02  0.1800E+02
     -4.976  0.0000E+00  0.0000E+00  0.1800E+02  0.1800E+02
     -4.861  0.0000E+00  0.0000E+00  0.1800E+02  0.1800E+02
     -4.747  0.0000E+00  0.0000E+00  0.1800E+02  0.1800E+02
     -4.632  0.0000E+00  0.0000E+00  0.1800E+02  0.1800E+02
     -4.517  0.0000E+00  0.0000E+00  0.1800E+02  0.1800E+02
     -4.402  0.0000E+00  0.0000E+00  0.1800E+02  0.1800E+02
     -4.287  0.0000E+00  0.0000E+00  0.1800E+02  0.1800E+02
     -4.172  0.0000E+00  0.0000E+00  0.1800E+02  0.1800E+02
     -4.057  0.0000E+00  0.0000E+00  0.1800E+02  0.1800E+02
     -3.942  0.0000E+00  0.0000E+00  0.1800E+02  0.1800E+02
     -3.827  0.0000E+00  0.0000E+00  0.1800E+02  0.1800E+02
     -3.712  0.0000E+00  0.0000E+00  0.1800E+02  0.1800E+02
     -3.597  0.0000E+00  0.0000E+00  0.1800E+02  0.1800E+02
     -3.482  0.0000E+00  0.0000E+00  0.1800E+02  0.1800E+02
     -3.367  0.3380E-14  0.0000E+00  0.1800E+02  0.1800E+02
     -3.252  0.1807E-11  0.0000E+00  0.1800E+02  0.1800E+02
     -3.137  0.5275E-09  0.0000E+00  0.1800E+02  0.1800E+02
     -3.022  0.8053E-07  0.0000E+00  0.1800E+02  0.1800E+02
     -2.907  0.6444E-05  0.0000E+00  0.1800E+02  0.1800E+02
     -2.792  0.2711E-03  0.5311E-14  0.1800E+02  0.1800E+02
     -2.677  0.6013E-02  0.3123E-11  0.1800E+02  0.1800E+02
     -2.562  0.7061E-01  0.9182E-09  0.1801E+02  0.1800E+02
     -2.447  0.4404E+00  0.1414E-06  0.1806E+02  0.1800E+02
     -2.332  0.1464E+01  0.1144E-04  0.1823E+02  0.1800E+02
     -2.217  0.2604E+01  0.4874E-03  0.1853E+02  0.1800E+02
     -2.102  0.2532E+01  0.1097E-01  0.1882E+02  0.1800E+02
     -1.987  0.1707E+01  0.1311E+00  0.1901E+02  0.1802E+02
     -1.872  0.2139E+01  0.8329E+00  0.1926E+02  0.1811E+02
     -1.757  0.4083E+01  0.2827E+01  0.1973E+02  0.1844E+02
     -1.642  0.5180E+01  0.5136E+01  0.2033E+02  0.1903E+02
     -1.527  0.3819E+01  0.5014E+01  0.2076E+02  0.1960E+02
     -1.412  0.1610E+01  0.2741E+01  0.2095E+02  0.1992E+02
     -1.297  0.3827E+00  0.1403E+01  0.2099E+02  0.2008E+02
     -1.182  0.5135E-01  0.1964E+01  0.2100E+02  0.2031E+02
     -1.067  0.2059E-01  0.2742E+01  0.2100E+02  0.2062E+02
     -0.952  0.1635E+00  0.2155E+01  0.2102E+02  0.2087E+02
     -0.837  0.8664E+00  0.9239E+00  0.2112E+02  0.2098E+02
     -0.722  0.2600E+01  0.3554E+00  0.2142E+02  0.2102E+02
     -0.607  0.4563E+01  0.7690E+00  0.2194E+02  0.2110E+02
     -0.492  0.4835E+01  0.1956E+01  0.2250E+02  0.2133E+02
     -0.377  0.3368E+01  0.2748E+01  0.2289E+02  0.2165E+02
     -0.262  0.2554E+01  0.2111E+01  0.2318E+02  0.2189E+02
     -0.148  0.3742E+01  0.1179E+01  0.2361E+02  0.2202E+02
     -0.033  0.5725E+01  0.1529E+01  0.2427E+02  0.2220E+02
      0.082  0.7103E+01  0.3146E+01  0.2509E+02  0.2256E+02
      0.197  0.7400E+01  0.5284E+01  0.2594E+02  0.2317E+02
      0.312  0.6822E+01  0.7744E+01  0.2672E+02  0.2406E+02
      0.427  0.7097E+01  0.9237E+01  0.2754E+02  0.2512E+02
      0.542  0.9008E+01  0.8500E+01  0.2857E+02  0.2610E+02
      0.657  0.1036E+02  0.7447E+01  0.2976E+02  0.2695E+02
      0.772  0.1037E+02  0.8201E+01  0.3096E+02  0.2790E+02
      0.887  0.9109E+01  0.9620E+01  0.3200E+02  0.2900E+02
      1.002  0.5815E+01  0.9920E+01  0.3267E+02  0.3014E+02
      1.117  0.2275E+01  0.9770E+01  0.3293E+02  0.3127E+02
      1.232  0.5048E+00  0.8340E+01  0.3299E+02  0.3223E+02
      1.347  0.6159E-01  0.4778E+01  0.3300E+02  0.3278E+02
      1.462  0.4062E-02  0.1609E+01  0.3300E+02  0.3296E+02
      1.577  0.1434E-03  0.3051E+00  0.3300E+02  0.3300E+02
      1.692  0.2689E-05  0.3205E-01  0.3300E+02  0.3300E+02
      1.807  0.2665E-07  0.1843E-02  0.3300E+02  0.3300E+02
      1.922  0.1390E-09  0.5740E-04  0.3300E+02  0.3300E+02
      2.037  0.3805E-12  0.9591E-06  0.3300E+02  0.3300E+02
      2.152  0.0000E+00  0.8529E-08  0.3300E+02  0.3300E+02
      2.267  0.0000E+00  0.4010E-10  0.3300E+02  0.3300E+02
      2.382  0.0000E+00  0.9849E-13  0.3300E+02  0.3300E+02
      2.497  0.0000E+00  0.0000E+00  0.3300E+02  0.3300E+02
      2.612  0.0000E+00  0.0000E+00  0.3300E+02  0.3300E+02
      2.727  0.0000E+00  0.0000E+00  0.3300E+02  0.3300E+02
      2.842  0.0000E+00  0.0000E+00  0.3300E+02  0.3300E+02
      2.957  0.0000E+00  0.0000E+00  0.3300E+02  0.3300E+02
      3.072  0.0000E+00  0.0000E+00  0.3300E+02  0.3300E+02
      3.187  0.0000E+00  0.0000E+00  0.3300E+02  0.3300E+02
      3.18675414    -31.30567343  301     -2.00397430      1.00000000
    -31.306  0.0000E+00  0.0000E+00  0.0000E+00  0.0000E+00  0.0000E+00  0.0000E+00  0.0000E+00  0.0000E+00  0.0000E+00  0.0000E+00  0.0000E+00  0.0000E+00  0.0000E+00  0.0000E+00  0.0000E+00  0.0000E+00  0.0000E+00  0.0000E+00
    -31.191  0.0000E+00  0.0000E+00  0.0000E+00  0.0000E+00  0.0000E+00  0.0000E+00  0.0000E+00  0.0000E+00  0.0000E+00  0.0000E+00  0.0000E+00  0.0000E+00  0.0000E+00  0.0000E+00  0.0000E+00  0.0000E+00  0.0000E+00  0.0000E+00
    -31.076  0.0000E+00  0.0000E+00  0.0000E+00  0.0000E+00  0.0000E+00  0.0000E+00  0.0000E+00  0.0000E+00  0.0000E+00  0.0000E+00  0.0000E+00  0.0000E+00  0.0000E+00  0.0000E+00  0.0000E+00  0.0000E+00  0.0000E+00  0.0000E+00
    -30.961  0.0000E+00  0.0000E+00  0.0000E+00  0.0000E+00  0.0000E+00  0.0000E+00  0.0000E+00  0.0000E+00  0.0000E+00  0.0000E+00  0.0000E+00  0.0000E+00  0.0000E+00  0.0000E+00  0.0000E+00  0.0000E+00  0.0000E+00  0.0000E+00
    -30.846  0.0000E+00  0.0000E+00  0.0000E+00  0.0000E+00  0.0000E+00  0.0000E+00  0.0000E+00  0.0000E+00  0.0000E+00  0.0000E+00  0.0000E+00  0.0000E+00  0.0000E+00  0.0000E+00  0.0000E+00  0.0000E+00  0.0000E+00  0.0000E+00
    -30.731  0.0000E+00  0.0000E+00  0.0000E+00  0.0000E+00  0.0000E+00  0.0000E+00  0.0000E+00  0.0000E+00  0.0000E+00  0.0000E+00  0.0000E+00  0.0000E+00  0.0000E+00  0.0000E+00  0.0000E+00  0.0000E+00  0.0000E+00  0.0000E+00
    -30.616  0.0000E+00  0.0000E+00  0.0000E+00  0.0000E+00  0.0000E+00  0.0000E+00  0.0000E+00  0.0000E+00  0.0000E+00  0.0000E+00  0.0000E+00  0.0000E+00  0.0000E+00  0.0000E+00  0.0000E+00  0.0000E+00  0.0000E+00  0.0000E+00
    -30.501  0.0000E+00  0.0000E+00  0.0000E+00  0.0000E+00  0.0000E+00  0.0000E+00  0.0000E+00  0.0000E+00  0.0000E+00  0.0000E+00  0.0000E+00  0.0000E+00  0.0000E+00  0.0000E+00  0.0000E+00  0.0000E+00  0.0000E+00  0.0000E+00
    -30.386  0.6956E-17  0.0000E+00  0.1039E-17  0.0000E+00  0.7801E-22  0.0000E+00  0.8742E-24  0.0000E+00  0.0000E+00  0.0000E+00  0.0000E+00  0.0000E+00  0.0000E+00  0.0000E+00  0.0000E+00  0.0000E+00  0.0000E+00  0.0000E+00
    -30.271  0.2772E-14  0.1190E-17  0.4140E-15  0.1768E-18  0.3108E-19  0.1417E-22  0.3483E-21  0.1227E-23  0.0000E+00  0.0000E+00  0.0000E+00  0.0000E+00  0.0000E+00  0.0000E+00  0.0000E+00  0.0000E+00  0.0000E+00  0.0000E+00
    -30.156  0.5764E-12  0.5634E-15  0.8609E-13  0.8373E-16  0.6464E-17  0.6709E-20  0.7244E-19  0.5810E-21  0.0000E+00  0.0000E+00  0.0000E+00  0.0000E+00  0.0000E+00  0.0000E+00  0.0000E+00  0.0000E+00  0.0000E+00  0.0000E+00
    -30.041  0.6275E-10  0.1411E-12  0.9373E-11  0.2097E-13  0.7038E-15  0.1680E-17  0.7887E-17  0.1455E-18  0.0000E+00  0.0000E+00  0.0000E+00  0.0000E+00  0.0000E+00  0.0000E+00  0.0000E+00  0.0000E+00  0.0000E+00  0.0000E+00
    -29.926  0.3586E-08  0.1849E-10  0.5357E-09  0.2748E-11  0.4022E-13  0.2202E-15  0.4508E-15  0.1907E-16  0.0000E+00  0.0000E+00  0.0000E+00  0.0000E+00  0.0000E+00  0.0000E+00  0.0000E+00  0.0000E+00  0.0000E+00  0.0000E+00
    -29.811  0.1079E-06  0.1271E-08  0.1612E-07  0.1889E-09  0.1211E-11  0.1513E-13  0.1357E-13  0.1311E-14  0.0000E+00  0.0000E+00  0.0000E+00  0.0000E+00  0.0000E+00  0.0000E+00  0.0000E+00  0.0000E+00  0.0000E+00  0.0000E+00
    -29.696  0.1716E-05  0.4595E-07  0.2563E-06  0.6829E-08  0.1925E-10  0.5472E-12  0.2157E-12  0.4739E-13  0.0000E+00  0.0000E+00  0.0000E+00  0.0000E+00  0.0000E+00  0.0000E+00  0.0000E+00  0.0000E+00  0.0000E+00  0.0000E+00
    -29.581  0.1447E-04  0.8770E-06  0.2161E-05  0.1303E-06  0.1623E-09  0.1044E-10  0.1819E-11  0.9044E-12  0.0000E+00  0.0000E+00  0.0000E+00  0.0000E+00  0.0000E+00  0.0000E+00  0.0000E+00  0.0000E+00  0.0000E+00  0.0000E+00
    -29.466  0.6493E-04  0.8866E-05  0.9698E-05  0.1318E-05  0.7282E-09  0.1056E-09  0.8160E-11  0.9143E-11  0.0000E+00  0.0000E+00  0.0000E+00  0.0000E+00  0.0000E+00  0.0000E+00  0.0000E+00  0.0000E+00  0.0000E+00  0.0000E+00
    -29.351  0.1555E-03  0.4765E-04  0.2322E-04  0.7082E-05  0.1744E-08  0.5674E-09  0.1954E-10  0.4914E-10  0.0000E+00  0.0000E+00  0.0000E+00  0.0000E+00  0.0000E+00  0.0000E+00  0.0000E+00  0.0000E+00  0.0000E+00  0.0000E+00
    -29.236  0.1991E-03  0.1366E-03  0.2973E-04  0.2030E-04  0.2232E-08  0.1626E-08  0.2502E-10  0.1408E-09  0.0000E+00  0.0000E+00  0.0000E+00  0.0000E+00  0.0000E+00  0.0000E+00  0.0000E+00  0.0000E+00  0.0000E+00  0.0000E+00
    -29.121  0.1363E-03  0.2092E-03  0.2037E-04  0.3109E-04  0.1529E-08  0.2491E-08  0.1714E-10  0.2158E-09  0.0000E+00  0.0000E+00  0.0000E+00  0.0000E+00  0.0000E+00  0.0000E+00  0.0000E+00  0.0000E+00  0.0000E+00  0.0000E+00
    -29.006  0.4992E-04  0.1715E-03  0.7457E-05  0.2548E-04  0.5599E-09  0.2042E-08  0.6275E-11  0.1768E-09  0.0000E+00  0.0000E+00  0.0000E+00  0.0000E+00  0.0000E+00  0.0000E+00  0.0000E+00  0.0000E+00  0.0000E+00  0.0000E+00
    -28.891  0.9750E-05  0.7514E-04  0.1456E-05  0.1117E-04  0.1094E-09  0.8947E-09  0.1225E-11  0.7749E-10  0.0000E+00  0.0000E+00  0.0000E+00  0.0000E+00  0.0000E+00  0.0000E+00  0.0000E+00  0.0000E+00  0.0000E+00  0.0000E+00
    -28.776  0.1013E-05  0.1758E-04  0.1512E-06  0.2612E-05  0.1136E-10  0.2093E-09  0.1273E-12  0.1813E-10  0.0000E+00  0.0000E+00  0.0000E+00  0.0000E+00  0.0000E+00  0.0000E+00  0.0000E+00  0.0000E+00  0.0000E+00  0.0000E+00
    -28.661  0.5572E-07  0.2189E-05  0.8323E-08  0.3253E-06  0.6250E-12  0.2606E-10  0.7004E-14  0.2257E-11  0.0000E+00  0.0000E+00  0.0000E+00  0.0000E+00  0.0000E+00  0.0000E+00  0.0000E+00  0.0000E+00  0.0000E+00  0.0000E+00
    -28.546  0.1619E-08  0.1445E-06  0.2418E-09  0.2148E-07  0.1816E-13  0.1721E-11  0.2035E-15  0.1491E-12  0.0000E+00  0.0000E+00  0.0000E+00  0.0000E+00  0.0000E+00  0.0000E+00  0.0000E+00  0.0000E+00  0.0000E+00  0.0000E+00
    -28.431  0.2475E-10  0.5045E-08  0.3697E-11  0.7498E-09  0.2776E-15  0.6008E-13  0.3111E-17  0.5203E-14  0.0000E+00  0.0000E+00  0.0000E+00  0.0000E+00  0.0000E+00  0.0000E+00  0.0000E+00  0.0000E+00  0.0000E+00  0.0000E+00
    -28.316  0.1985E-12  0.9275E-10  0.2965E-13  0.1378E-10  0.2227E-17  0.1104E-14  0.2495E-19  0.9565E-16  0.0000E+00  0.0000E+00  0.0000E+00  0.0000E+00  0.0000E+00  0.0000E+00  0.0000E+00  0.0000E+00  0.0000E+00  0.0000E+00
    -28.201  0.8333E-15  0.8953E-12  0.1245E-15  0.1331E-12  0.9346E-20  0.1066E-16  0.1047E-21  0.9233E-18  0.0000E+00  0.0000E+00  0.0000E+00  0.0000E+00  0.0000E+00  0.0000E+00  0.0000E+00  0.0000E+00  0.0000E+00  0.0000E+00
    -28.086  0.1827E-17  0.4525E-14  0.2728E-18  0.6725E-15  0.2049E-22  0.5388E-19  0.2296E-24  0.4667E-20  0.0000E+00  0.0000E+00  0.0000E+00  0.0000E+00  0.0000E+00  0.0000E+00  0.0000E+00  0.0000E+00  0.0000E+00  0.0000E+00
    -27.971  0.0000E+00  0.1197E-16  0.0000E+00  0.1779E-17  0.0000E+00  0.1425E-21  0.0000E+00  0.1235E-22  0.0000E+00  0.0000E+00  0.0000E+00  0.0000E+00  0.0000E+00  0.0000E+00  0.0000E+00  0.0000E+00  0.0000E+00  0.0000E+00
    -27.856  0.0000E+00  0.0000E+00  0.0000E+00  0.0000E+00  0.0000E+00  0.0000E+00  0.0000E+00  0.0000E+00  0.0000E+00  0.0000E+00  0.0000E+00  0.0000E+00  0.0000E+00  0.0000E+00  0.0000E+00  0.0000E+00  0.0000E+00  0.0000E+00
    -27.741  0.0000E+00  0.0000E+00  0.0000E+00  0.0000E+00  0.0000E+00  0.0000E+00  0.0000E+00  0.0000E+00  0.0000E+00  0.0000E+00  0.0000E+00  0.0000E+00  0.0000E+00  0.0000E+00  0.0000E+00  0.0000E+00  0.0000E+00  0.0000E+00
    -27.626  0.0000E+00  0.0000E+00  0.0000E+00  0.0000E+00  0.0000E+00  0.0000E+00  0.0000E+00  0.0000E+00  0.0000E+00  0.0000E+00  0.0000E+00  0.0000E+00  0.0000E+00  0.0000E+00  0.0000E+00  0.0000E+00  0.0000E+00  0.0000E+00
    -27.512  0.0000E+00  0.0000E+00  0.0000E+00  0.0000E+00  0.0000E+00  0.0000E+00  0.0000E+00  0.0000E+00  0.0000E+00  0.0000E+00  0.0000E+00  0.0000E+00  0.0000E+00  0.0000E+00  0.0000E+00  0.0000E+00  0.0000E+00  0.0000E+00
    -27.397  0.0000E+00  0.0000E+00  0.0000E+00  0.0000E+00  0.0000E+00  0.0000E+00  0.0000E+00  0.0000E+00  0.0000E+00  0.0000E+00  0.0000E+00  0.0000E+00  0.0000E+00  0.0000E+00  0.0000E+00  0.0000E+00  0.0000E+00  0.0000E+00
    -27.282  0.0000E+00  0.0000E+00  0.0000E+00  0.0000E+00  0.0000E+00  0.0000E+00  0.0000E+00  0.0000E+00  0.0000E+00  0.0000E+00  0.0000E+00  0.0000E+00  0.0000E+00  0.0000E+00  0.0000E+00  0.0000E+00  0.0000E+00  0.0000E+00
    -27.167  0.0000E+00  0.0000E+00  0.0000E+00  0.0000E+00  0.0000E+00  0.0000E+00  0.0000E+00  0.0000E+00  0.0000E+00  0.0000E+00  0.0000E+00  0.0000E+00  0.0000E+00  0.0000E+00  0.0000E+00  0.0000E+00  0.0000E+00  0.0000E+00
    -27.052  0.0000E+00  0.0000E+00  0.0000E+00  0.0000E+00  0.0000E+00  0.0000E+00  0.0000E+00  0.0000E+00  0.0000E+00  0.0000E+00  0.0000E+00  0.0000E+00  0.0000E+00  0.0000E+00  0.0000E+00  0.0000E+00  0.0000E+00  0.0000E+00
    -26.937  0.0000E+00  0.0000E+00  0.0000E+00  0.0000E+00  0.0000E+00  0.0000E+00  0.0000E+00  0.0000E+00  0.0000E+00  0.0000E+00  0.0000E+00  0.0000E+00  0.0000E+00  0.0000E+00  0.0000E+00  0.0000E+00  0.0000E+00  0.0000E+00
    -26.822  0.0000E+00  0.0000E+00  0.0000E+00  0.0000E+00  0.0000E+00  0.0000E+00  0.0000E+00  0.0000E+00  0.0000E+00  0.0000E+00  0.0000E+00  0.0000E+00  0.0000E+00  0.0000E+00  0.0000E+00  0.0000E+00  0.0000E+00  0.0000E+00
    -26.707  0.0000E+00  0.0000E+00  0.0000E+00  0.0000E+00  0.0000E+00  0.0000E+00  0.0000E+00  0.0000E+00  0.0000E+00  0.0000E+00  0.0000E+00  0.0000E+00  0.0000E+00  0.0000E+00  0.0000E+00  0.0000E+00  0.0000E+00  0.0000E+00
    -26.592  0.0000E+00  0.0000E+00  0.0000E+00  0.0000E+00  0.0000E+00  0.0000E+00  0.0000E+00  0.0000E+00  0.0000E+00  0.0000E+00  0.0000E+00  0.0000E+00  0.0000E+00  0.0000E+00  0.0000E+00  0.0000E+00  0.0000E+00  0.0000E+00
    -26.477  0.0000E+00  0.0000E+00  0.0000E+00  0.0000E+00  0.0000E+00  0.0000E+00  0.0000E+00  0.0000E+00  0.0000E+00  0.0000E+00  0.0000E+00  0.0000E+00  0.0000E+00  0.0000E+00  0.0000E+00  0.0000E+00  0.0000E+00  0.0000E+00
    -26.362  0.0000E+00  0.0000E+00  0.0000E+00  0.0000E+00  0.0000E+00  0.0000E+00  0.0000E+00  0.0000E+00  0.0000E+00  0.0000E+00  0.0000E+00  0.0000E+00  0.0000E+00  0.0000E+00  0.0000E+00  0.0000E+00  0.0000E+00  0.0000E+00
    -26.247  0.0000E+00  0.0000E+00  0.0000E+00  0.0000E+00  0.0000E+00  0.0000E+00  0.0000E+00  0.0000E+00  0.0000E+00  0.0000E+00  0.0000E+00  0.0000E+00  0.0000E+00  0.0000E+00  0.0000E+00  0.0000E+00  0.0000E+00  0.0000E+00
    -26.132  0.0000E+00  0.0000E+00  0.0000E+00  0.0000E+00  0.0000E+00  0.0000E+00  0.0000E+00  0.0000E+00  0.0000E+00  0.0000E+00  0.0000E+00  0.0000E+00  0.0000E+00  0.0000E+00  0.0000E+00  0.0000E+00  0.0000E+00  0.0000E+00
    -26.017  0.0000E+00  0.0000E+00  0.0000E+00  0.0000E+00  0.0000E+00  0.0000E+00  0.0000E+00  0.0000E+00  0.0000E+00  0.0000E+00  0.0000E+00  0.0000E+00  0.0000E+00  0.0000E+00  0.0000E+00  0.0000E+00  0.0000E+00  0.0000E+00
    -25.902  0.0000E+00  0.0000E+00  0.0000E+00  0.0000E+00  0.0000E+00  0.0000E+00  0.0000E+00  0.0000E+00  0.0000E+00  0.0000E+00  0.0000E+00  0.0000E+00  0.0000E+00  0.0000E+00  0.0000E+00  0.0000E+00  0.0000E+00  0.0000E+00
    -25.787  0.0000E+00  0.0000E+00  0.0000E+00  0.0000E+00  0.0000E+00  0.0000E+00  0.0000E+00  0.0000E+00  0.0000E+00  0.0000E+00  0.0000E+00  0.0000E+00  0.0000E+00  0.0000E+00  0.0000E+00  0.0000E+00  0.0000E+00  0.0000E+00
    -25.672  0.0000E+00  0.0000E+00  0.0000E+00  0.0000E+00  0.0000E+00  0.0000E+00  0.0000E+00  0.0000E+00  0.0000E+00  0.0000E+00  0.0000E+00  0.0000E+00  0.0000E+00  0.0000E+00  0.0000E+00  0.0000E+00  0.0000E+00  0.0000E+00
    -25.557  0.0000E+00  0.0000E+00  0.0000E+00  0.0000E+00  0.0000E+00  0.0000E+00  0.0000E+00  0.0000E+00  0.0000E+00  0.0000E+00  0.0000E+00  0.0000E+00  0.0000E+00  0.0000E+00  0.0000E+00  0.0000E+00  0.0000E+00  0.0000E+00