       N       E                     dE             d eps       ncg     rms          rms(c)
DAV:   1     0.216564121093E+03    0.21656E+03   -0.75104E+03   164   0.491E+02
DAV:   2     0.360109422274E+02   -0.18055E+03   -0.16109E+03   223   0.951E+01
DAV:   3    -0.695191301877E+02   -0.10553E+03   -0.10283E+03   160   0.700E+01
DAV:   4    -0.820482342582E+02   -0.12529E+02   -0.12503E+02   168   0.345E+01
DAV:   5    -0.822691775965E+02   -0.22094E+00   -0.21476E+00   175   0.521E+00
DAV:   6    -0.822751621482E+02   -0.59846E-02   -0.58955E-02   152   0.758E-01
DAV:   7    -0.822754817991E+02   -0.31965E-03   -0.31744E-03   208   0.171E-01
DAV:   8    -0.822754937641E+02   -0.11965E-04   -0.11964E-04   184   0.303E-02
DAV:   9    -0.822754944837E+02   -0.71959E-06   -0.71908E-06   184   0.687E-03
DAV:  10    -0.822754945354E+02   -0.51707E-07   -0.51992E-07   168   0.170E-03
   1 F= -.82631352E+02 E0= -.82613467E+02  d E =-.357697E-01  mag=     0.9769
