PROCAR lm decomposed
# of k-points:    1         # of bands:   33         # of ions:   14

 k-point     1 :    0.00000000 0.00000000 0.00000000     weight = 1.00000000

band     1 # energy  -29.30567343 # occ.  1.00000000

ion      s     py     pz     px    dxy    dyz    dz2    dxz  x2-y2    tot
    1  0.000  0.000  0.000  0.000  0.000  0.000  0.000  0.000  0.000  0.000
    2  0.000  0.000  0.000  0.000  0.000  0.000  0.000  0.000  0.000  0.000
    3  0.000  0.000  0.000  0.000  0.000  0.000  0.000  0.000  0.000  0.000
    4  0.000  0.000  0.000  0.000  0.000  0.000  0.000  0.000  0.000  0.000
    5  0.000  0.000  0.000  0.000  0.000  0.000  0.000  0.000  0.000  0.000
    6  0.057  0.000  0.010  0.002  0.000  0.000  0.000  0.000  0.000  0.070
    7  0.059  0.000  0.011  0.001  0.000  0.000  0.000  0.000  0.000  0.072
    8  0.049  0.000  0.000  0.026  0.000  0.000  0.000  0.000  0.000  0.075
    9  0.001  0.000  0.000  0.000  0.000  0.000  0.000  0.000  0.000  0.002
   10  0.000  0.000  0.000  0.000  0.000  0.000  0.000  0.000  0.000  0.000
   11  0.000  0.000  0.000  0.000  0.000  0.000  0.000  0.000  0.000  0.000
   12  0.000  0.000  0.000  0.000  0.000  0.000  0.000  0.000  0.000  0.000
   13  0.001  0.000  0.000  0.000  0.000  0.000  0.000  0.000  0.000  0.002
   14  0.726  0.000  0.000  0.005  0.000  0.000  0.000  0.000  0.000  0.731
tot    0.894  0.001  0.021  0.035  0.000  0.000  0.000  0.000  0.000  0.951

band     2 # energy  -21.65116972 # occ.  1.00000000

ion      s     py     pz     px    dxy    dyz    dz2    dxz  x2-y2    tot
    1  0.005  0.000  0.000  0.000  0.000  0.000  0.000  0.000  0.000  0.005
    2  0.004  0.000  0.000  0.000  0.000  0.000  0.000  0.000  0.000  0.005
    3  0.004  0.000  0.000  0.000  0.000  0.000  0.000  0.000  0.000  0.004
    4  0.004  0.000  0.000  0.000  0.000  0.000  0.000  0.000  0.000  0.005
    5  0.005  0.000  0.000  0.000  0.000  0.000  0.000  0.000  0.000  0.005
    6  0.004  0.000  0.001  0.000  0.000  0.000  0.000  0.000  0.000  0.004
    7  0.003  0.000  0.001  0.000  0.000  0.000  0.000  0.000  0.000  0.004
    8  0.100  0.000  0.000  0.014  0.000  0.000  0.000  0.000  0.000  0.113
    9  0.101  0.008  0.000  0.002  0.000  0.000  0.000  0.000  0.000  0.111
   10  0.093  0.006  0.000  0.003  0.000  0.000  0.000  0.000  0.000  0.102
   11  0.089  0.000  0.000  0.009  0.000  0.000  0.000  0.000  0.000  0.097
   12  0.093  0.006  0.000  0.003  0.000  0.000  0.000  0.000  0.000  0.102
   13  0.101  0.008  0.000  0.002  0.000  0.000  0.000  0.000  0.000  0.111
   14  0.013  0.000  0.000  0.011  0.000  0.000  0.000  0.000  0.000  0.024
tot    0.617  0.030  0.001  0.044  0.000  0.000  0.000  0.000  0.000  0.693

band     3 # energy  -18.97973557 # occ.  1.00000000

ion      s     py     pz     px    dxy    dyz    dz2    dxz  x2-y2    tot
    1  0.003  0.000  0.000  0.000  0.000  0.000  0.000  0.000  0.000  0.003
    2  0.007  0.001  0.000  0.000  0.000  0.000  0.000  0.000  0.000  0.008
    3  0.019  0.000  0.000  0.002  0.000  0.000  0.000  0.000  0.000  0.021
    4  0.005  0.001  0.000  0.000  0.000  0.000  0.000  0.000  0.000  0.005
    5  0.005  0.001  0.000  0.000  0.000  0.000  0.000  0.000  0.000  0.005
    6  0.013  0.000  0.003  0.000  0.000  0.000  0.000  0.000  0.000  0.016
    7  0.010  0.000  0.002  0.000  0.000  0.000  0.000  0.000  0.000  0.012
    8  0.169  0.000  0.000  0.000  0.000  0.000  0.000  0.000  0.000  0.170
    9  0.022  0.007  0.000  0.014  0.000  0.000  0.000  0.000  0.000  0.043
   10  0.063  0.007  0.000  0.007  0.000  0.000  0.000  0.000  0.000  0.077
   11  0.172  0.000  0.000  0.002  0.000  0.000  0.000  0.000  0.000  0.174
   12  0.044  0.007  0.000  0.009  0.000  0.000  0.000  0.000  0.000  0.061
   13  0.037  0.007  0.000  0.013  0.000  0.000  0.000  0.000  0.000  0.056
   14  0.020  0.000  0.000  0.082  0.000  0.000  0.000  0.000  0.000  0.102
tot    0.588  0.029  0.005  0.130  0.000  0.000  0.000  0.000  0.000  0.752

band     4 # energy  -18.90737536 # occ.  1.00000000

ion      s     py     pz     px    dxy    dyz    dz2    dxz  x2-y2    tot
    1  0.019  0.001  0.000  0.001  0.000  0.000  0.000  0.000  0.000  0.021
    2  0.014  0.001  0.000  0.001  0.000  0.000  0.000  0.000  0.000  0.015
    3  0.000  0.000  0.000  0.000  0.000  0.000  0.000  0.000  0.000  0.000
    4  0.016  0.001  0.000  0.001  0.000  0.000  0.000  0.000  0.000  0.017
    5  0.017  0.001  0.000  0.001  0.000  0.000  0.000  0.000  0.000  0.018
    6  0.000  0.000  0.000  0.000  0.000  0.000  0.000  0.000  0.000  0.000
    7  0.000  0.000  0.000  0.000  0.000  0.000  0.000  0.000  0.000  0.000
    8  0.001  0.037  0.000  0.000  0.000  0.000  0.000  0.000  0.000  0.038
    9  0.157  0.000  0.000  0.004  0.000  0.000  0.000  0.000  0.000  0.162
   10  0.118  0.000  0.000  0.009  0.000  0.000  0.000  0.000  0.000  0.128
   11  0.001  0.022  0.000  0.000  0.000  0.000  0.000  0.000  0.000  0.023
   12  0.137  0.000  0.000  0.007  0.000  0.000  0.000  0.000  0.000  0.144
   13  0.141  0.000  0.000  0.006  0.000  0.000  0.000  0.000  0.000  0.148
   14  0.000  0.003  0.000  0.000  0.000  0.000  0.000  0.000  0.000  0.003
tot    0.620  0.067  0.000  0.029  0.000  0.000  0.000  0.000  0.000  0.716

band     5 # energy  -17.40939212 # occ.  1.00000000

ion      s     py     pz     px    dxy    dyz    dz2    dxz  x2-y2    tot
    1  0.000  0.000  0.000  0.000  0.000  0.000  0.000  0.000  0.000  0.000
    2  0.000  0.000  0.000  0.000  0.000  0.000  0.000  0.000  0.000  0.000
    3  0.000  0.000  0.000  0.000  0.000  0.000  0.000  0.000  0.000  0.000
    4  0.000  0.000  0.000  0.000  0.000  0.000  0.000  0.000  0.000  0.000
    5  0.000  0.000  0.000  0.000  0.000  0.000  0.000  0.000  0.000  0.000
    6  0.165  0.000  0.016  0.006  0.000  0.000  0.000  0.000  0.000  0.187
    7  0.166  0.000  0.019  0.004  0.000  0.000  0.000  0.000  0.000  0.189
    8  0.000  0.000  0.014  0.000  0.000  0.000  0.000  0.000  0.000  0.014
    9  0.000  0.000  0.000  0.000  0.000  0.000  0.000  0.000  0.000  0.001
   10  0.000  0.000  0.000  0.000  0.000  0.000  0.000  0.000  0.000  0.000
   11  0.000  0.000  0.000  0.000  0.000  0.000  0.000  0.000  0.000  0.000
   12  0.000  0.000  0.000  0.000  0.000  0.000  0.000  0.000  0.000  0.000
   13  0.000  0.000  0.000  0.000  0.000  0.000  0.000  0.000  0.000  0.001
   14  0.000  0.000  0.565  0.002  0.000  0.000  0.000  0.000  0.000  0.567
tot    0.332  0.001  0.615  0.013  0.000  0.000  0.000  0.000  0.000  0.960

band     6 # energy  -16.05050268 # occ.  1.00000000

ion      s     py     pz     px    dxy    dyz    dz2    dxz  x2-y2    tot
    1  0.009  0.000  0.000  0.000  0.000  0.000  0.000  0.000  0.000  0.010
    2  0.000  0.000  0.000  0.000  0.000  0.000  0.000  0.000  0.000  0.000
    3  0.031  0.000  0.000  0.003  0.000  0.000  0.000  0.000  0.000  0.033
    4  0.001  0.000  0.000  0.000  0.000  0.000  0.000  0.000  0.000  0.001
    5  0.007  0.000  0.000  0.000  0.000  0.000  0.000  0.000  0.000  0.008
    6  0.018  0.000  0.004  0.000  0.000  0.000  0.000  0.000  0.000  0.023
    7  0.022  0.000  0.004  0.001  0.000  0.000  0.000  0.000  0.000  0.026
    8  0.038  0.000  0.000  0.066  0.000  0.000  0.000  0.000  0.000  0.105
    9  0.049  0.002  0.000  0.011  0.000  0.000  0.000  0.000  0.000  0.062
   10  0.002  0.009  0.000  0.034  0.000  0.000  0.000  0.000  0.000  0.045
   11  0.102  0.000  0.000  0.004  0.000  0.000  0.000  0.000  0.000  0.106
   12  0.004  0.009  0.000  0.032  0.000  0.000  0.000  0.000  0.000  0.046
   13  0.044  0.002  0.000  0.014  0.000  0.000  0.000  0.000  0.000  0.060
   14  0.005  0.000  0.002  0.264  0.000  0.000  0.000  0.000  0.000  0.271
tot    0.331  0.024  0.009  0.429  0.000  0.000  0.000  0.000  0.000  0.794

band     7 # energy  -15.51443072 # occ.  1.00000000

ion      s     py     pz     px    dxy    dyz    dz2    dxz  x2-y2    tot
    1  0.023  0.002  0.000  0.000  0.000  0.000  0.000  0.000  0.000  0.025
    2  0.031  0.002  0.000  0.000  0.000  0.000  0.000  0.000  0.000  0.033
    3  0.000  0.000  0.000  0.000  0.000  0.000  0.000  0.000  0.000  0.000
    4  0.030  0.002  0.000  0.000  0.000  0.000  0.000  0.000  0.000  0.032
    5  0.025  0.002  0.000  0.000  0.000  0.000  0.000  0.000  0.000  0.027
    6  0.000  0.000  0.000  0.000  0.000  0.000  0.000  0.000  0.000  0.000
    7  0.000  0.000  0.000  0.000  0.000  0.000  0.000  0.000  0.000  0.000
    8  0.000  0.102  0.000  0.000  0.000  0.000  0.000  0.000  0.000  0.102
    9  0.057  0.001  0.000  0.037  0.000  0.000  0.000  0.000  0.000  0.095
   10  0.094  0.000  0.000  0.012  0.000  0.000  0.000  0.000  0.000  0.106
   11  0.000  0.066  0.000  0.000  0.000  0.000  0.000  0.000  0.000  0.066
   12  0.089  0.000  0.000  0.015  0.000  0.000  0.000  0.000  0.000  0.105
   13  0.063  0.001  0.000  0.033  0.000  0.000  0.000  0.000  0.000  0.097
   14  0.000  0.027  0.000  0.000  0.000  0.000  0.000  0.000  0.000  0.027
tot    0.412  0.206  0.000  0.099  0.000  0.000  0.000  0.000  0.000  0.717

band     8 # energy  -14.02769211 # occ.  1.00000000

ion      s     py     pz     px    dxy    dyz    dz2    dxz  x2-y2    tot
    1  0.019  0.001  0.000  0.001  0.000  0.000  0.000  0.000  0.000  0.021
    2  0.041  0.002  0.000  0.001  0.000  0.000  0.000  0.000  0.000  0.044
    3  0.002  0.000  0.000  0.000  0.000  0.000  0.000  0.000  0.000  0.003
    4  0.043  0.002  0.000  0.001  0.000  0.000  0.000  0.000  0.000  0.046
    5  0.018  0.001  0.000  0.001  0.000  0.000  0.000  0.000  0.000  0.019
    6  0.007  0.000  0.001  0.000  0.000  0.000  0.000  0.000  0.000  0.008
    7  0.007  0.000  0.001  0.001  0.000  0.000  0.000  0.000  0.000  0.008
    8  0.024  0.000  0.000  0.101  0.000  0.000  0.000  0.000  0.000  0.126
    9  0.002  0.067  0.000  0.005  0.000  0.000  0.000  0.000  0.000  0.074
   10  0.030  0.049  0.000  0.001  0.000  0.000  0.000  0.000  0.000  0.080
   11  0.023  0.000  0.000  0.002  0.000  0.000  0.000  0.000  0.000  0.025
   12  0.032  0.049  0.000  0.000  0.000  0.000  0.000  0.000  0.000  0.081
   13  0.001  0.067  0.000  0.005  0.000  0.000  0.000  0.000  0.000  0.073
   14  0.000  0.000  0.000  0.120  0.000  0.000  0.000  0.000  0.000  0.120
tot    0.248  0.237  0.003  0.240  0.000  0.000  0.000  0.000  0.000  0.727

band     9 # energy  -12.46926698 # occ.  1.00000000

ion      s     py     pz     px    dxy    dyz    dz2    dxz  x2-y2    tot
    1  0.054  0.003  0.000  0.000  0.000  0.000  0.000  0.000  0.000  0.057
    2  0.000  0.000  0.000  0.000  0.000  0.000  0.000  0.000  0.000  0.000
    3  0.118  0.000  0.000  0.007  0.000  0.000  0.000  0.000  0.000  0.125
    4  0.000  0.000  0.000  0.000  0.000  0.000  0.000  0.000  0.000  0.000
    5  0.057  0.003  0.000  0.001  0.000  0.000  0.000  0.000  0.000  0.060
    6  0.002  0.000  0.000  0.000  0.000  0.000  0.000  0.000  0.000  0.003
    7  0.002  0.000  0.000  0.000  0.000  0.000  0.000  0.000  0.000  0.003
    8  0.000  0.000  0.000  0.009  0.000  0.000  0.000  0.000  0.000  0.010
    9  0.016  0.014  0.000  0.053  0.000  0.000  0.000  0.000  0.000  0.083
   10  0.020  0.006  0.000  0.016  0.000  0.000  0.000  0.000  0.000  0.042
   11  0.028  0.000  0.000  0.120  0.000  0.000  0.000  0.000  0.000  0.148
   12  0.021  0.007  0.000  0.012  0.000  0.000  0.000  0.000  0.000  0.040
   13  0.019  0.016  0.000  0.048  0.000  0.000  0.000  0.000  0.000  0.083
   14  0.001  0.000  0.000  0.053  0.000  0.000  0.000  0.000  0.000  0.055
tot    0.340  0.050  0.001  0.320  0.000  0.000  0.000  0.000  0.000  0.710

band    10 # energy  -12.07319495 # occ.  1.00000000

ion      s     py     pz     px    dxy    dyz    dz2    dxz  x2-y2    tot
    1  0.006  0.000  0.000  0.001  0.000  0.000  0.000  0.000  0.000  0.007
    2  0.004  0.001  0.000  0.000  0.000  0.000  0.000  0.000  0.000  0.005
    3  0.000  0.001  0.000  0.000  0.000  0.000  0.000  0.000  0.000  0.001
    4  0.003  0.001  0.000  0.000  0.000  0.000  0.000  0.000  0.000  0.004
    5  0.004  0.000  0.000  0.001  0.000  0.000  0.000  0.000  0.000  0.005
    6  0.000  0.002  0.000  0.000  0.000  0.000  0.000  0.000  0.000  0.002
    7  0.000  0.002  0.000  0.000  0.000  0.000  0.000  0.000  0.000  0.002
    8  0.000  0.084  0.000  0.000  0.000  0.000  0.000  0.000  0.000  0.084
    9  0.010  0.028  0.000  0.044  0.000  0.000  0.000  0.000  0.000  0.082
   10  0.003  0.012  0.000  0.078  0.000  0.000  0.000  0.000  0.000  0.093
   11  0.000  0.091  0.000  0.000  0.000  0.000  0.000  0.000  0.000  0.091
   12  0.002  0.012  0.000  0.080  0.000  0.000  0.000  0.000  0.000  0.094
   13  0.008  0.026  0.000  0.050  0.000  0.000  0.000  0.000  0.000  0.084
   14  0.000  0.170  0.000  0.000  0.000  0.000  0.000  0.000  0.000  0.170
tot    0.040  0.429  0.000  0.256  0.000  0.000  0.000  0.000  0.000  0.725

band    11 # energy  -11.03044812 # occ.  1.00000000

ion      s     py     pz     px    dxy    dyz    dz2    dxz  x2-y2    tot
    1  0.046  0.001  0.000  0.001  0.000  0.000  0.000  0.000  0.000  0.048
    2  0.086  0.003  0.000  0.001  0.000  0.000  0.000  0.000  0.000  0.090
    3  0.005  0.000  0.000  0.000  0.000  0.000  0.000  0.000  0.000  0.005
    4  0.085  0.003  0.000  0.001  0.000  0.000  0.000  0.000  0.000  0.089
    5  0.046  0.001  0.000  0.001  0.000  0.000  0.000  0.000  0.000  0.048
    6  0.001  0.000  0.000  0.000  0.000  0.000  0.000  0.000  0.000  0.001
    7  0.001  0.000  0.000  0.000  0.000  0.000  0.000  0.000  0.000  0.001
    8  0.041  0.000  0.000  0.032  0.000  0.000  0.000  0.000  0.000  0.073
    9  0.008  0.047  0.000  0.000  0.000  0.000  0.000  0.000  0.000  0.056
   10  0.006  0.072  0.000  0.015  0.000  0.000  0.000  0.000  0.000  0.094
   11  0.022  0.000  0.000  0.038  0.000  0.000  0.000  0.000  0.000  0.060
   12  0.006  0.070  0.000  0.017  0.000  0.000  0.000  0.000  0.000  0.093
   13  0.008  0.049  0.000  0.000  0.000  0.000  0.000  0.000  0.000  0.057
   14  0.000  0.000  0.000  0.015  0.000  0.000  0.000  0.000  0.000  0.015
tot    0.361  0.248  0.000  0.121  0.000  0.000  0.000  0.000  0.000  0.730

band    12 # energy  -10.62071036 # occ.  1.00000000

ion      s     py     pz     px    dxy    dyz    dz2    dxz  x2-y2    tot
    1  0.063  0.002  0.000  0.001  0.000  0.000  0.000  0.000  0.000  0.066
    2  0.055  0.002  0.000  0.001  0.000  0.000  0.000  0.000  0.000  0.057
    3  0.000  0.000  0.000  0.000  0.000  0.000  0.000  0.000  0.000  0.000
    4  0.055  0.002  0.000  0.001  0.000  0.000  0.000  0.000  0.000  0.058
    5  0.063  0.002  0.000  0.001  0.000  0.000  0.000  0.000  0.000  0.065
    6  0.000  0.000  0.000  0.000  0.000  0.000  0.000  0.000  0.000  0.000
    7  0.000  0.000  0.000  0.000  0.000  0.000  0.000  0.000  0.000  0.000
    8  0.000  0.019  0.000  0.000  0.000  0.000  0.000  0.000  0.000  0.019
    9  0.004  0.078  0.000  0.035  0.000  0.000  0.000  0.000  0.000  0.116
   10  0.003  0.063  0.000  0.036  0.000  0.000  0.000  0.000  0.000  0.102
   11  0.000  0.011  0.000  0.000  0.000  0.000  0.000  0.000  0.000  0.011
   12  0.003  0.064  0.000  0.036  0.000  0.000  0.000  0.000  0.000  0.103
   13  0.004  0.077  0.000  0.035  0.000  0.000  0.000  0.000  0.000  0.116
   14  0.000  0.003  0.000  0.000  0.000  0.000  0.000  0.000  0.000  0.003
tot    0.250  0.321  0.000  0.144  0.000  0.000  0.000  0.000  0.000  0.716

band    13 # energy   -9.75645035 # occ.  1.00000000

ion      s     py     pz     px    dxy    dyz    dz2    dxz  x2-y2    tot
    1  0.020  0.001  0.000  0.000  0.000  0.000  0.000  0.000  0.000  0.021
    2  0.007  0.000  0.000  0.001  0.000  0.000  0.000  0.000  0.000  0.008
    3  0.000  0.001  0.000  0.000  0.000  0.000  0.000  0.000  0.000  0.001
    4  0.007  0.000  0.000  0.001  0.000  0.000  0.000  0.000  0.000  0.008
    5  0.021  0.001  0.000  0.000  0.000  0.000  0.000  0.000  0.000  0.022
    6  0.000  0.005  0.000  0.000  0.000  0.000  0.000  0.000  0.000  0.005
    7  0.000  0.005  0.000  0.000  0.000  0.000  0.000  0.000  0.000  0.006
    8  0.000  0.005  0.001  0.000  0.000  0.000  0.000  0.000  0.000  0.006
    9  0.005  0.000  0.000  0.040  0.000  0.000  0.000  0.000  0.000  0.045
   10  0.001  0.031  0.000  0.029  0.000  0.000  0.000  0.000  0.000  0.061
   11  0.000  0.073  0.000  0.000  0.000  0.000  0.000  0.000  0.000  0.073
   12  0.001  0.033  0.000  0.031  0.000  0.000  0.000  0.000  0.000  0.065
   13  0.004  0.000  0.000  0.043  0.000  0.000  0.000  0.000  0.000  0.047
   14  0.000  0.399  0.000  0.000  0.000  0.000  0.000  0.000  0.000  0.399
tot    0.067  0.556  0.002  0.144  0.000  0.000  0.000  0.000  0.000  0.769

band    14 # energy   -9.49695394 # occ.  1.00000000

ion      s     py     pz     px    dxy    dyz    dz2    dxz  x2-y2    tot
    1  0.000  0.000  0.001  0.000  0.000  0.000  0.000  0.000  0.000  0.001
    2  0.000  0.000  0.001  0.000  0.000  0.000  0.000  0.000  0.000  0.001
    3  0.000  0.000  0.001  0.000  0.000  0.000  0.000  0.000  0.000  0.001
    4  0.000  0.000  0.001  0.000  0.000  0.000  0.000  0.000  0.000  0.001
    5  0.000  0.000  0.001  0.000  0.000  0.000  0.000  0.000  0.000  0.001
    6  0.004  0.000  0.000  0.000  0.000  0.000  0.000  0.000  0.000  0.004
    7  0.004  0.000  0.000  0.000  0.000  0.000  0.000  0.000  0.000  0.004
    8  0.000  0.000  0.088  0.000  0.000  0.000  0.000  0.000  0.000  0.088
    9  0.000  0.000  0.076  0.001  0.000  0.000  0.000  0.000  0.000  0.077
   10  0.000  0.000  0.067  0.000  0.000  0.000  0.000  0.000  0.000  0.068
   11  0.000  0.000  0.064  0.001  0.000  0.000  0.000  0.000  0.000  0.065
   12  0.000  0.000  0.067  0.000  0.000  0.000  0.000  0.000  0.000  0.067
   13  0.000  0.000  0.076  0.000  0.000  0.000  0.000  0.000  0.000  0.076
   14  0.000  0.001  0.007  0.000  0.000  0.000  0.000  0.000  0.000  0.009
tot    0.009  0.002  0.450  0.002  0.000  0.000  0.000  0.000  0.000  0.462

band    15 # energy   -9.13101569 # occ.  1.00000000

ion      s     py     pz     px    dxy    dyz    dz2    dxz  x2-y2    tot
    1  0.018  0.001  0.000  0.000  0.000  0.000  0.000  0.000  0.000  0.018
    2  0.017  0.001  0.000  0.000  0.000  0.000  0.000  0.000  0.000  0.018
    3  0.144  0.000  0.000  0.005  0.000  0.000  0.000  0.000  0.000  0.148
    4  0.019  0.001  0.000  0.000  0.000  0.000  0.000  0.000  0.000  0.020
    5  0.016  0.001  0.000  0.000  0.000  0.000  0.000  0.000  0.000  0.017
    6  0.001  0.000  0.000  0.000  0.000  0.000  0.000  0.000  0.000  0.001
    7  0.000  0.000  0.000  0.000  0.000  0.000  0.000  0.000  0.000  0.001
    8  0.004  0.000  0.000  0.002  0.000  0.000  0.000  0.000  0.000  0.006
    9  0.004  0.001  0.000  0.081  0.000  0.000  0.000  0.000  0.000  0.085
   10  0.002  0.003  0.000  0.088  0.000  0.000  0.000  0.000  0.000  0.093
   11  0.000  0.000  0.000  0.148  0.000  0.000  0.000  0.000  0.000  0.148
   12  0.002  0.002  0.000  0.087  0.000  0.000  0.000  0.000  0.000  0.091
   13  0.004  0.001  0.000  0.080  0.000  0.000  0.000  0.000  0.000  0.084
   14  0.002  0.000  0.000  0.018  0.000  0.000  0.000  0.000  0.000  0.020
tot    0.232  0.011  0.001  0.507  0.000  0.000  0.000  0.000  0.000  0.751

band    16 # energy   -8.44194354 # occ.  1.00000000

ion      s     py     pz     px    dxy    dyz    dz2    dxz  x2-y2    tot
    1  0.036  0.000  0.000  0.001  0.000  0.000  0.000  0.000  0.000  0.037
    2  0.056  0.001  0.000  0.001  0.000  0.000  0.000  0.000  0.000  0.058
    3  0.000  0.000  0.000  0.000  0.000  0.000  0.000  0.000  0.000  0.000
    4  0.055  0.001  0.000  0.001  0.000  0.000  0.000  0.000  0.000  0.057
    5  0.037  0.000  0.000  0.001  0.000  0.000  0.000  0.000  0.000  0.038
    6  0.000  0.002  0.000  0.000  0.000  0.000  0.000  0.000  0.000  0.002
    7  0.000  0.002  0.000  0.000  0.000  0.000  0.000  0.000  0.000  0.002
    8  0.000  0.104  0.000  0.000  0.000  0.000  0.000  0.000  0.000  0.104
    9  0.001  0.068  0.000  0.007  0.000  0.000  0.000  0.000  0.000  0.076
   10  0.001  0.066  0.000  0.001  0.000  0.000  0.000  0.000  0.000  0.068
   11  0.000  0.073  0.000  0.000  0.000  0.000  0.000  0.000  0.000  0.073
   12  0.001  0.067  0.000  0.001  0.000  0.000  0.000  0.000  0.000  0.068
   13  0.001  0.068  0.000  0.006  0.000  0.000  0.000  0.000  0.000  0.075
   14  0.000  0.103  0.000  0.000  0.000  0.000  0.000  0.000  0.000  0.103
tot    0.188  0.556  0.000  0.016  0.000  0.000  0.000  0.000  0.000  0.760

band    17 # energy   -6.82011417 # occ.  1.00000000

ion      s     py     pz     px    dxy    dyz    dz2    dxz  x2-y2    tot
    1  0.000  0.000  0.000  0.000  0.000  0.000  0.000  0.000  0.000  0.000
    2  0.000  0.000  0.001  0.000  0.000  0.000  0.000  0.000  0.000  0.001
    3  0.000  0.000  0.002  0.000  0.000  0.000  0.000  0.000  0.000  0.002
    4  0.000  0.000  0.001  0.000  0.000  0.000  0.000  0.000  0.000  0.001
    5  0.000  0.000  0.000  0.000  0.000  0.000  0.000  0.000  0.000  0.000
    6  0.006  0.000  0.001  0.000  0.000  0.000  0.000  0.000  0.000  0.006
    7  0.005  0.000  0.001  0.000  0.000  0.000  0.000  0.000  0.000  0.006
    8  0.000  0.000  0.160  0.000  0.000  0.000  0.000  0.000  0.000  0.160
    9  0.000  0.000  0.029  0.000  0.000  0.000  0.000  0.000  0.000  0.029
   10  0.000  0.000  0.047  0.000  0.000  0.000  0.000  0.000  0.000  0.047
   11  0.000  0.000  0.159  0.000  0.000  0.000  0.000  0.000  0.000  0.159
   12  0.000  0.000  0.045  0.000  0.000  0.000  0.000  0.000  0.000  0.045
   13  0.000  0.000  0.031  0.000  0.000  0.000  0.000  0.000  0.000  0.031
   14  0.000  0.000  0.008  0.000  0.000  0.000  0.000  0.000  0.000  0.008
tot    0.011  0.000  0.485  0.000  0.000  0.000  0.000  0.000  0.000  0.496

band    18 # energy   -6.73709218 # occ.  1.00000000

ion      s     py     pz     px    dxy    dyz    dz2    dxz  x2-y2    tot
    1  0.000  0.000  0.002  0.000  0.000  0.000  0.000  0.000  0.000  0.002
    2  0.000  0.000  0.002  0.000  0.000  0.000  0.000  0.000  0.000  0.002
    3  0.000  0.000  0.000  0.000  0.000  0.000  0.000  0.000  0.000  0.000
    4  0.000  0.000  0.002  0.000  0.000  0.000  0.000  0.000  0.000  0.002
    5  0.000  0.000  0.002  0.000  0.000  0.000  0.000  0.000  0.000  0.002
    6  0.000  0.000  0.000  0.000  0.000  0.000  0.000  0.000  0.000  0.000
    7  0.000  0.000  0.000  0.000  0.000  0.000  0.000  0.000  0.000  0.000
    8  0.000  0.000  0.000  0.000  0.000  0.000  0.000  0.000  0.000  0.000
    9  0.000  0.000  0.121  0.000  0.000  0.000  0.000  0.000  0.000  0.121
   10  0.000  0.000  0.112  0.000  0.000  0.000  0.000  0.000  0.000  0.112
   11  0.000  0.000  0.000  0.000  0.000  0.000  0.000  0.000  0.000  0.000
   12  0.000  0.000  0.114  0.000  0.000  0.000  0.000  0.000  0.000  0.114
   13  0.000  0.000  0.120  0.000  0.000  0.000  0.000  0.000  0.000  0.120
   14  0.000  0.000  0.000  0.000  0.000  0.000  0.000  0.000  0.000  0.000
tot    0.000  0.000  0.474  0.000  0.000  0.000  0.000  0.000  0.000  0.474

band    19 # energy   -2.22650443 # occ.  0.94220142

ion      s     py     pz     px    dxy    dyz    dz2    dxz  x2-y2    tot
    1  0.002  0.000  0.000  0.000  0.000  0.000  0.000  0.000  0.000  0.002
    2  0.000  0.000  0.000  0.000  0.000  0.000  0.000  0.000  0.000  0.000
    3  0.000  0.000  0.000  0.000  0.000  0.000  0.000  0.000  0.000  0.000
    4  0.000  0.000  0.000  0.000  0.000  0.000  0.000  0.000  0.000  0.000
    5  0.001  0.000  0.000  0.000  0.000  0.000  0.000  0.000  0.000  0.002
    6  0.031  0.000  0.012  0.000  0.000  0.000  0.000  0.000  0.000  0.043
    7  0.036  0.000  0.011  0.000  0.000  0.000  0.000  0.000  0.000  0.047
    8  0.000  0.000  0.001  0.009  0.000  0.000  0.000  0.000  0.000  0.010
    9  0.002  0.000  0.001  0.002  0.000  0.000  0.000  0.000  0.000  0.004
   10  0.000  0.000  0.000  0.001  0.000  0.000  0.000  0.000  0.000  0.001
   11  0.000  0.000  0.001  0.000  0.000  0.000  0.000  0.000  0.000  0.001
   12  0.000  0.000  0.000  0.001  0.000  0.000  0.000  0.000  0.000  0.002
   13  0.002  0.000  0.000  0.002  0.000  0.000  0.000  0.000  0.000  0.004
   14  0.067  0.000  0.000  0.010  0.000  0.000  0.000  0.000  0.000  0.078
tot    0.142  0.001  0.026  0.025  0.000  0.000  0.000  0.000  0.000  0.194

band    20 # energy   -1.75495348 # occ.  0.03913248

ion      s     py     pz     px    dxy    dyz    dz2    dxz  x2-y2    tot
    1  0.000  0.000  0.002  0.000  0.000  0.000  0.000  0.000  0.000  0.002
    2  0.000  0.000  0.001  0.000  0.000  0.000  0.000  0.000  0.000  0.001
    3  0.000  0.000  0.004  0.000  0.000  0.000  0.000  0.000  0.000  0.004
    4  0.000  0.000  0.001  0.000  0.000  0.000  0.000  0.000  0.000  0.001
    5  0.000  0.000  0.001  0.000  0.000  0.000  0.000  0.000  0.000  0.001
    6  0.009  0.000  0.000  0.001  0.000  0.000  0.000  0.000  0.000  0.010
    7  0.004  0.000  0.000  0.001  0.000  0.000  0.000  0.000  0.000  0.005
    8  0.000  0.000  0.161  0.000  0.000  0.000  0.000  0.000  0.000  0.161
    9  0.000  0.000  0.050  0.000  0.000  0.000  0.000  0.000  0.000  0.050
   10  0.000  0.000  0.022  0.000  0.000  0.000  0.000  0.000  0.000  0.022
   11  0.000  0.000  0.136  0.000  0.000  0.000  0.000  0.000  0.000  0.136
   12  0.000  0.000  0.035  0.000  0.000  0.000  0.000  0.000  0.000  0.035
   13  0.000  0.000  0.035  0.000  0.000  0.000  0.000  0.000  0.000  0.035
   14  0.000  0.000  0.000  0.001  0.000  0.000  0.000  0.000  0.000  0.001
tot    0.013  0.000  0.447  0.002  0.000  0.000  0.000  0.000  0.000  0.463

band    21 # energy   -1.65576965 # occ.  0.00690479

ion      s     py     pz     px    dxy    dyz    dz2    dxz  x2-y2    tot
    1  0.000  0.000  0.003  0.000  0.000  0.000  0.000  0.000  0.000  0.003
    2  0.000  0.000  0.004  0.000  0.000  0.000  0.000  0.000  0.000  0.004
    3  0.000  0.000  0.000  0.000  0.000  0.000  0.000  0.000  0.000  0.000
    4  0.000  0.000  0.003  0.000  0.000  0.000  0.000  0.000  0.000  0.003
    5  0.000  0.000  0.004  0.000  0.000  0.000  0.000  0.000  0.000  0.004
    6  0.000  0.000  0.000  0.000  0.000  0.000  0.000  0.000  0.000  0.000
    7  0.000  0.000  0.000  0.000  0.000  0.000  0.000  0.000  0.000  0.000
    8  0.000  0.000  0.001  0.000  0.000  0.000  0.000  0.000  0.000  0.001
    9  0.000  0.000  0.095  0.000  0.000  0.000  0.000  0.000  0.000  0.095
   10  0.000  0.000  0.121  0.000  0.000  0.000  0.000  0.000  0.000  0.121
   11  0.000  0.000  0.001  0.000  0.000  0.000  0.000  0.000  0.000  0.001
   12  0.000  0.000  0.106  0.000  0.000  0.000  0.000  0.000  0.000  0.106
   13  0.000  0.000  0.112  0.000  0.000  0.000  0.000  0.000  0.000  0.112
   14  0.000  0.000  0.000  0.000  0.000  0.000  0.000  0.000  0.000  0.000
tot    0.000  0.000  0.449  0.000  0.000  0.000  0.000  0.000  0.000  0.449

band    22 # energy   -0.65995476 # occ.  0.00000000

ion      s     py     pz     px    dxy    dyz    dz2    dxz  x2-y2    tot
    1  0.000  0.000  0.000  0.000  0.000  0.000  0.000  0.000  0.000  0.000
    2  0.000  0.000  0.000  0.000  0.000  0.000  0.000  0.000  0.000  0.000
    3  0.000  0.000  0.000  0.000  0.000  0.000  0.000  0.000  0.000  0.000
    4  0.000  0.000  0.000  0.000  0.000  0.000  0.000  0.000  0.000  0.000
    5  0.000  0.000  0.000  0.000  0.000  0.000  0.000  0.000  0.000  0.000
    6  0.002  0.000  0.008  0.002  0.000  0.000  0.000  0.000  0.000  0.011
    7  0.002  0.000  0.009  0.001  0.000  0.000  0.000  0.000  0.000  0.012
    8  0.000  0.000  0.000  0.000  0.000  0.000  0.000  0.000  0.000  0.000
    9  0.000  0.000  0.003  0.000  0.000  0.000  0.000  0.000  0.000  0.003
   10  0.000  0.000  0.006  0.000  0.000  0.000  0.000  0.000  0.000  0.006
   11  0.000  0.000  0.009  0.000  0.000  0.000  0.000  0.000  0.000  0.009
   12  0.000  0.000  0.007  0.000  0.000  0.000  0.000  0.000  0.000  0.007
   13  0.000  0.000  0.002  0.000  0.000  0.000  0.000  0.000  0.000  0.002
   14  0.000  0.000  0.054  0.000  0.000  0.000  0.000  0.000  0.000  0.054
tot    0.003  0.000  0.098  0.003  0.000  0.000  0.000  0.000  0.000  0.105

band    23 # energy   -0.53274679 # occ.  0.00000000

ion      s     py     pz     px    dxy    dyz    dz2    dxz  x2-y2    tot
    1  0.001  0.001  0.000  0.000  0.000  0.000  0.000  0.000  0.000  0.002
    2  0.001  0.001  0.000  0.001  0.000  0.000  0.000  0.000  0.000  0.003
    3  0.000  0.000  0.000  0.002  0.000  0.000  0.000  0.000  0.000  0.002
    4  0.001  0.001  0.000  0.001  0.000  0.000  0.000  0.000  0.000  0.003
    5  0.001  0.001  0.000  0.000  0.000  0.000  0.000  0.000  0.000  0.002
    6  0.002  0.000  0.000  0.000  0.000  0.000  0.000  0.000  0.000  0.002
    7  0.002  0.000  0.001  0.000  0.000  0.000  0.000  0.000  0.000  0.003
    8  0.002  0.000  0.000  0.004  0.000  0.000  0.000  0.000  0.000  0.006
    9  0.002  0.003  0.000  0.000  0.000  0.000  0.000  0.000  0.000  0.005
   10  0.005  0.004  0.000  0.001  0.000  0.000  0.000  0.000  0.000  0.011
   11  0.004  0.000  0.000  0.006  0.000  0.000  0.000  0.000  0.000  0.010
   12  0.005  0.004  0.000  0.001  0.000  0.000  0.000  0.000  0.000  0.011
   13  0.002  0.003  0.000  0.000  0.000  0.000  0.000  0.000  0.000  0.005
   14  0.005  0.000  0.000  0.002  0.000  0.000  0.000  0.000  0.000  0.007
tot    0.036  0.019  0.001  0.018  0.000  0.000  0.000  0.000  0.000  0.073

band    24 # energy   -0.13518134 # occ.  0.00000000

ion      s     py     pz     px    dxy    dyz    dz2    dxz  x2-y2    tot
    1  0.000  0.002  0.000  0.001  0.000  0.000  0.000  0.000  0.000  0.002
    2  0.000  0.001  0.000  0.000  0.000  0.000  0.000  0.000  0.000  0.001
    3  0.000  0.000  0.000  0.000  0.000  0.000  0.000  0.000  0.000  0.000
    4  0.000  0.001  0.000  0.000  0.000  0.000  0.000  0.000  0.000  0.001
    5  0.000  0.001  0.000  0.001  0.000  0.000  0.000  0.000  0.000  0.002
    6  0.000  0.000  0.000  0.000  0.000  0.000  0.000  0.000  0.000  0.000