<?xml version="1.0" encoding="ISO-8859-1"?>
<modeling>
 <generator>
  <i name="program" type="string">vasp </i>
  <i name="version" type="string">5.4.4.18Apr17-6-g9f103f2a35  </i>
  <i name="subversion" type="string">(build Jul 11 2022 10:00:19) complex            parallel </i>
  <i name="platform" type="string">LinuxGNU </i>
  <i name="date" type="string">2024 09 18 </i>
  <i name="time" type="string">14:44:22 </i>
 </generator>
 <incar>
  <i type="string" name="SYSTEM"> scf</i>
  <i type="int" name="ISTART">     1</i>
  <i type="string" name="PREC">normal</i>
  <i type="string" name="ALGO"> Normal</i>
  <i type="int" name="ISPIN">     2</i>
  <i type="int" name="ICHARG">    11</i>
  <i type="int" name="IBRION">    -1</i>
  <i name="EDIFF">      0.00000010</i>
  <i name="EDIFFG">     -0.01000000</i>
  <i type="int" name="NSW">     0</i>
  <i name="ENCUT">    400.00000000</i>
  <i type="string" name="LREAL"> Auto</i>
  <i type="int" name="ISMEAR">     0</i>
  <i name="SIGMA">      0.20000000</i>
  <i type="int" name="LORBIT">    11</i>
  <v type="int" name="KPOINT_BSE">    -1     0     0     0</v>
  <i type="string" name="GGA"> PE</i>
 </incar>
 <structure name="primitive_cell" >
  <crystal>
   <varray name="basis" >
    <v>      15.00000000       0.00000000       0.00000000 </v>
    <v>       0.00000000      15.00000000       0.00000000 </v>
    <v>       0.00000000       0.00000000      15.00000000 </v>
   </varray>
   <i name="volume">   3375.00000000 </i>
   <varray name="rec_basis" >
    <v>       0.06666667       0.00000000       0.00000000 </v>
    <v>       0.00000000       0.06666667       0.00000000 </v>
    <v>       0.00000000       0.00000000       0.06666667 </v>
   </varray>
  </crystal>
  <varray name="positions" >
   <v>       0.43345454       0.35648954       0.49586537 </v>
   <v>       0.47089311       0.41894144       0.49638009 </v>
   <v>       0.42484707       0.49999523       0.49657148 </v>
   <v>      -0.43600088       0.41932651       0.49657387 </v>
   <v>      -0.39974016       0.35617101       0.49723369 </v>
   <v>       0.33206666      -0.49993336       0.49166667 </v>
   <v>       0.31515852       0.49599907       0.42929441 </v>
   <v>       0.30680543       0.49884698      -0.44854438 </v>
   <v>       0.47087827      -0.41898143       0.49624935 </v>
   <v>      -0.38942522       0.49997970       0.49634337 </v>
   <v>      -0.43600792      -0.41935223       0.49645263 </v>
   <v>       0.43343273      -0.35652131       0.49576813 </v>
   <v>      -0.31670660       0.49998587       0.49664205 </v>
   <v>      -0.39974356      -0.35620147       0.49710613 </v>
  </varray>
 </structure>
 <varray name="primitive_index" >
  <v type="int" >        1 </v>
  <v type="int" >        9 </v>
  <v type="int" >        8 </v>
  <v type="int" >       10 </v>
  <v type="int" >        2 </v>
  <v type="int" >       14 </v>
  <v type="int" >        7 </v>
  <v type="int" >        6 </v>
  <v type="int" >       13 </v>
  <v type="int" >       11 </v>
  <v type="int" >       12 </v>
  <v type="int" >        5 </v>
  <v type="int" >        3 </v>
  <v type="int" >        4 </v>
 </varray>
 <kpoints>
  <generation param="Monkhorst-Pack">
   <v type="int" name="divisions">       1        1        1 </v>
   <v name="usershift">      0.00000000       0.00000000       0.00000000 </v>
   <v name="genvec1">      1.00000000       0.00000000       0.00000000 </v>
   <v name="genvec2">      0.00000000       1.00000000       0.00000000 </v>
   <v name="genvec3">      0.00000000       0.00000000       1.00000000 </v>
   <v name="shift">      0.00000000       0.00000000       0.00000000 </v>
  </generation>
  <varray name="kpointlist" >
   <v>       0.00000000       0.00000000       0.00000000 </v>
  </varray>
  <varray name="weights" >
   <v>       1.00000000 </v>
  </varray>
 </kpoints>
 <parameters>
  <separator name="general" >
   <i type="string" name="SYSTEM">scf</i>
   <i type="logical" name="LCOMPAT"> F  </i>
  </separator>
  <separator name="electronic" >
   <i type="string" name="PREC">normal</i>
   <i name="ENMAX">    400.00000000</i>
   <i name="ENAUG">    644.87300000</i>
   <i name="EDIFF">      0.00000010</i>
   <i type="int" name="IALGO">    38</i>
   <i type="int" name="IWAVPR">    10</i>
   <i type="int" name="NBANDS">    33</i>
   <i name="NELECT">     37.00000000</i>
   <i type="int" name="TURBO">     0</i>
   <i type="int" name="IRESTART">     0</i>
   <i type="int" name="NREBOOT">     0</i>
   <i type="int" name="NMIN">     0</i>
   <i name="EREF">      0.00000000</i>
   <separator name="electronic smearing" >
    <i type="int" name="ISMEAR">     0</i>
    <i name="SIGMA">      0.20000000</i>
    <i name="KSPACING">      0.50000000</i>
    <i type="logical" name="KGAMMA"> T  </i>
   </separator>
   <separator name="electronic projectors" >
    <i type="logical" name="LREAL"> T  </i>
    <v name="ROPT">     -0.00050000     -0.00050000     -0.00050000</v>
    <i type="int" name="LMAXPAW">  -100</i>
    <i type="int" name="LMAXMIX">     2</i>
    <i type="logical" name="NLSPLINE"> F  </i>
   </separator>
   <separator name="electronic startup" >
    <i type="int" name="ISTART">     0</i>
    <i type="int" name="ICHARG">    11</i>
    <i type="int" name="INIWAV">     1</i>
   </separator>
   <separator name="electronic spin" >
    <i type="int" name="ISPIN">     2</i>
    <i type="logical" name="LNONCOLLINEAR"> F  </i>
    <v name="MAGMOM">      1.00000000      1.00000000      1.00000000      1.00000000      1.00000000      1.00000000      1.00000000      1.00000000      1.00000000      1.00000000      1.00000000      1.00000000      1.00000000      1.00000000</v>
    <i name="NUPDOWN">     -1.00000000</i>
    <i type="logical" name="LSORBIT"> F  </i>
    <v name="SAXIS">      0.00000000      0.00000000      1.00000000</v>
    <i type="logical" name="LSPIRAL"> F  </i>
    <v name="QSPIRAL">      0.00000000      0.00000000      0.00000000</v>
    <i type="logical" name="LZEROZ"> F  </i>
   </separator>
   <separator name="electronic exchange-correlation" >
    <i type="logical" name="LASPH"> F  </i>
    <i type="logical" name="LMETAGGA"> F  </i>
   </separator>
   <separator name="electronic convergence" >
    <i type="int" name="NELM">    60</i>
    <i type="int" name="NELMDL">     0</i>
    <i type="int" name="NELMIN">     2</i>
    <i name="ENINI">    400.00000000</i>
    <separator name="electronic convergence detail" >
     <i type="logical" name="LDIAG"> T  </i>
     <i type="logical" name="LSUBROT"> F  </i>
     <i name="WEIMIN">      0.00000000</i>
     <i name="EBREAK">      0.00000000</i>
     <i name="DEPER">      0.30000000</i>
     <i type="int" name="NRMM">     4</i>
     <i name="TIME">      0.40000000</i>
    </separator>
   </separator>
   <separator name="electronic mixer" >
    <i name="AMIX">      0.40000000</i>
    <i name="BMIX">      1.00000000</i>
    <i name="AMIN">      0.10000000</i>
    <i name="AMIX_MAG">      1.60000000</i>
    <i name="BMIX_MAG">      1.00000000</i>
    <separator name="electronic mixer details" >
     <i type="int" name="IMIX">     4</i>
     <i type="logical" name="MIXFIRST"> F  </i>
     <i type="int" name="MAXMIX">   -45</i>
     <i name="WC">    100.00000000</i>
     <i type="int" name="INIMIX">     1</i>
     <i type="int" name="MIXPRE">     1</i>
     <i type="int" name="MREMOVE">     5</i>
    </separator>
   </separator>
   <separator name="electronic dipolcorrection" >
    <i type="logical" name="LDIPOL"> F  </i>
    <i type="logical" name="LMONO"> F  </i>
    <i type="int" name="IDIPOL">     0</i>
    <i name="EPSILON">      1.00000000</i>
    <v name="DIPOL">   -100.00000000   -100.00000000   -100.00000000</v>
    <i name="EFIELD">      0.00000000</i>
   </separator>
  </separator>
  <separator name="grids" >
   <i type="int" name="NGX">    80</i>
   <i type="int" name="NGY">    80</i>
   <i type="int" name="NGZ">    80</i>
   <i type="int" name="NGXF">   160</i>
   <i type="int" name="NGYF">   160</i>
   <i type="int" name="NGZF">   160</i>
   <i type="logical" name="ADDGRID"> F  </i>
  </separator>
  <separator name="ionic" >
   <i type="int" name="NSW">     0</i>
   <i type="int" name="IBRION">    -1</i>
   <i type="int" name="MDALGO">     0</i>
   <i type="int" name="ISIF">     2</i>
   <i name="PSTRESS">      0.00000000</i>
   <i name="EDIFFG">     -0.01000000</i>
   <i type="int" name="NFREE">     0</i>
   <i name="POTIM">      0.50000000</i>
   <i name="SMASS">     -3.00000000</i>
   <i name="SCALEE">      1.00000000</i>
  </separator>
  <separator name="ionic md" >
   <i name="TEBEG">      0.00010000</i>
   <i name="TEEND">      0.00010000</i>
   <i type="int" name="NBLOCK">     1</i>
   <i type="int" name="KBLOCK">     1</i>
   <i type="int" name="NPACO">   256</i>
   <i name="APACO">     16.00000000</i>
  </separator>
  <separator name="symmetry" >
   <i type="int" name="ISYM">     2</i>
   <i name="SYMPREC">      0.00001000</i>
  </separator>
  <separator name="dos" >
   <i type="int" name="LORBIT">    11</i>
   <v name="RWIGS">     -1.00000000     -1.00000000     -1.00000000</v>
   <i type="int" name="NEDOS">   301</i>
   <i name="EMIN">     10.00000000</i>
   <i name="EMAX">    -10.00000000</i>
   <i name="EFERMI">      0.00000000</i>
  </separator>
  <separator name="writing" >
   <i type="int" name="NWRITE">     2</i>
   <i type="logical" name="LWAVE"> T  </i>
   <i type="logical" name="LDOWNSAMPLE"> F  </i>
   <i type="logical" name="LCHARG"> T  </i>
   <i type="logical" name="LPARD"> F  </i>
   <i type="logical" name="LVTOT"> F  </i>
   <i type="logical" name="LVHAR"> F  </i>
   <i type="logical" name="LELF"> F  </i>
   <i type="logical" name="LOPTICS"> F  </i>
   <v name="STM">      0.00000000      0.00000000      0.00000000      0.00000000      0.00000000      0.00000000      0.00000000</v>
  </separator>
  <separator name="performance" >
   <i type="int" name="NPAR">     1</i>
   <i type="int" name="NSIM">     4</i>
   <i type="int" name="NBLK">    -1</i>
   <i type="logical" name="LPLANE"> T  </i>
   <i type="logical" name="LSCALAPACK"> T  </i>
   <i type="logical" name="LSCAAWARE"> F  </i>
   <i type="logical" name="LSCALU"> F  </i>
   <i type="logical" name="LASYNC"> F  </i>
   <i type="logical" name="LORBITALREAL"> F  </i>
  </separator>
  <separator name="miscellaneous" >
   <i type="int" name="IDIOT">     3</i>
   <i type="int" name="ISPECIAL">     0</i>
   <i type="logical" name="LMUSIC"> F  </i>
   <v name="POMASS">      1.00000000     12.01100000     16.00000000</v>
   <v name="DARWINR">      0.00000000      0.00000000      0.00000000</v>
   <v name="DARWINV">      1.00000000      1.00000000      1.00000000</v>
   <i type="logical" name="LCORR"> T  </i>
  </separator>
  <i type="logical" name="GGA_COMPAT"> T  </i>
  <i type="logical" name="LBERRY"> F  </i>
  <i type="int" name="ICORELEVEL">     0</i>
  <i type="logical" name="LDAU"> F  </i>
  <i type="int" name="I_CONSTRAINED_M">     0</i>
  <separator name="electronic exchange-correlation" >
   <i type="string" name="GGA">PE</i>
   <i type="int" name="VOSKOWN">     0</i>
   <i type="logical" name="LHFCALC"> F  </i>
   <i type="string" name="PRECFOCK"></i>
   <i type="logical" name="LSYMGRAD"> F  </i>
   <i type="logical" name="LHFONE"> F  </i>
   <i type="logical" name="LRHFCALC"> F  </i>
   <i type="logical" name="LTHOMAS"> F  </i>
   <i type="logical" name="LMODELHF"> F  </i>
   <i name="ENCUT4O">     -1.00000000</i>
   <i type="int" name="EXXOEP">     0</i>
   <i type="int" name="FOURORBIT">     0</i>
   <i name="AEXX">      0.00000000</i>
   <i name="HFALPHA">      0.00000000</i>
   <i name="MCALPHA">      0.00000000</i>
   <i name="ALDAX">      1.00000000</i>
   <i name="AGGAX">      1.00000000</i>
   <i name="ALDAC">      1.00000000</i>
   <i name="AGGAC">      1.00000000</i>
   <i type="int" name="NKREDX">     1</i>
   <i type="int" name="NKREDY">     1</i>
   <i type="int" name="NKREDZ">     1</i>
   <i type="logical" name="SHIFTRED"> F  </i>
   <i type="logical" name="ODDONLY"> F  </i>
   <i type="logical" name="EVENONLY"> F  </i>
   <i type="int" name="LMAXFOCK">     0</i>
   <i type="int" name="NMAXFOCKAE">     0</i>
   <i type="logical" name="LFOCKAEDFT"> F  </i>
   <i name="HFSCREEN">      0.00000000</i>
   <i name="HFSCREENC">      0.00000000</i>
   <i type="int" name="NBANDSGWLOW">     0</i>
  </separator>
  <separator name="vdW DFT" >
   <i type="logical" name="LUSE_VDW"> F  </i>
   <i name="Zab_VDW">     -0.84910000</i>
   <i name="PARAM1">      0.12340000</i>
   <i name="PARAM2">      1.00000000</i>
   <i name="PARAM3">      0.00000000</i>
  </separator>
  <separator name="model GW" >
   <i type="int" name="MODEL_GW">     0</i>
   <i name="MODEL_EPS0">    144.64285714</i>
   <i name="MODEL_ALPHA">      1.00000000</i>
  </separator>
  <separator name="linear response parameters" >
   <i type="logical" name="LEPSILON"> F  </i>
   <i type="logical" name="LRPA"> F  </i>
   <i type="logical" name="LNABLA"> F  </i>
   <i type="logical" name="LVEL"> F  </i>
   <i type="int" name="KINTER">     0</i>
   <i name="CSHIFT">      0.10000000</i>
   <i name="OMEGAMAX">     -1.00000000</i>
   <i name="DEG_THRESHOLD">      0.00200000</i>
   <i name="RTIME">     -0.10000000</i>
   <i name="WPLASMAI">      0.00000000</i>
   <v name="DFIELD">      0.00000000      0.00000000      0.00000000</v>
   <v name="WPLASMA">      0.00000000      0.00000000      0.00000000      0.00000000      0.00000000      0.00000000      0.00000000      0.00000000      0.00000000</v>
  </separator>
  <separator name="orbital magnetization" >
   <i type="logical" name="NUCIND"> F  </i>
   <v name="MAGPOS">      0.00000000      0.00000000      0.00000000</v>
   <i type="logical" name="LNICSALL"> T  </i>
   <i type="logical" name="ORBITALMAG"> F  </i>
   <i type="logical" name="LMAGBLOCH"> F  </i>
   <i type="logical" name="LCHIMAG"> F  </i>
   <i type="logical" name="LGAUGE"> T  </i>
   <i type="int" name="MAGATOM">     0</i>
   <v name="MAGDIPOL">      0.00000000      0.00000000      0.00000000</v>
   <v name="AVECCONST">      0.00000000      0.00000000      0.00000000</v>
  </separator>
  <separator name="response functions" >
   <i type="logical" name="LADDER"> F  </i>
   <i type="logical" name="LRPAFORCE"> F  </i>
   <i type="logical" name="LFXC"> F  </i>
   <i type="logical" name="LHARTREE"> T  </i>
   <i type="int" name="IBSE">     0</i>
   <v type="int" name="KPOINT">    -1     0     0     0</v>
   <i type="logical" name="LTCTE"> F  </i>
   <i type="logical" name="LTETE"> F  </i>
   <i type="logical" name="LTRIPLET"> F  </i>
   <i type="logical" name="LFXCEPS"> F  </i>
   <i type="logical" name="LFXHEG"> F  </i>
   <i type="int" name="NATURALO">     2</i>
   <i type="logical" name="L2ORDER"> F  </i>
   <i type="logical" name="LMP2LT"> F  </i>
   <i type="logical" name="LUSEW"> F  </i>
   <i name="ENCUTGW">     -2.00000000</i>
   <i name="ENCUTGWSOFT">     -2.00000000</i>
   <i name="ENCUTLF">     -1.00000000</i>
   <i type="int" name="LMAXMP2">    -1</i>
   <i name="SCISSOR">      0.00000000</i>
   <i type="int" name="NOMEGA">     0</i>
   <i type="int" name="NOMEGAR">     0</i>
   <i type="int" name="NBANDSGW">    -1</i>
   <i type="int" name="NBANDSO">    -1</i>
   <i type="int" name="NBANDSV">    -1</i>
   <i type="int" name="NELM">     1</i>
   <i type="int" name="NELMHF">     1</i>
   <i type="int" name="DIM">     3</i>
   <i type="int" name="ANTIRES">     0</i>
   <i name="OMEGAMAX">    -30.00000000</i>
   <i name="OMEGAMIN">    -30.00000000</i>
   <i name="OMEGATL">   -200.00000000</i>
   <i type="int" name="OMEGAGRID">   140</i>
   <i name="CSHIFT">     -0.10000000</i>
   <i type="logical" name="SELFENERGY"> F  </i>
   <i type="logical" name="LSPECTRAL"> F  </i>
   <i type="logical" name="LSPECTRALGW"> F  </i>
   <i type="logical" name="LSINGLES"> F  </i>
   <i type="logical" name="LFERMIGW"> F  </i>
   <i type="logical" name="ODDONLYGW"> F  </i>
   <i type="logical" name="EVENONLYGW"> F  </i>
   <i type="int" name="NKREDLFX">     1</i>
   <i type="int" name="NKREDLFY">     1</i>
   <i type="int" name="NKREDLFZ">     1</i>
   <i type="int" name="MAXMEM">  2800</i>
   <i type="int" name="TELESCOPE">     0</i>
   <i type="int" name="TAUPAR">     1</i>
   <i type="int" name="OMEGAPAR">    -1</i>
   <i name="LAMBDA">      1.00000000</i>
  </separator>
  <separator name="External order field" >
   <i name="OFIELD_KAPPA">      0.00000000</i>
   <v name="OFIELD_K">      0.00000000      0.00000000      0.00000000</v>
   <i name="OFIELD_Q6_NEAR">      0.00000000</i>
   <i name="OFIELD_Q6_FAR">      0.00000000</i>
   <i name="OFIELD_A">      0.00000000</i>
  </separator>
 </parameters>
 <atominfo>
  <atoms>      14 </atoms>
  <types>       3 </types>
  <array name="atoms" >
   <dimension dim="1">ion</dimension>
   <field type="string">element</field>
   <field type="int">atomtype</field>
   <set>
    <rc><c>H </c><c>   1</c></rc>
    <rc><c>H </c><c>   1</c></rc>
    <rc><c>H </c><c>   1</c></rc>
    <rc><c>H </c><c>   1</c></rc>
    <rc><c>H </c><c>   1</c></rc>
    <rc><c>H </c><c>   1</c></rc>
    <rc><c>H </c><c>   1</c></rc>
    <rc><c>C </c><c>   2</c></rc>
    <rc><c>C </c><c>   2</c></rc>
    <rc><c>C </c><c>   2</c></rc>
    <rc><c>C </c><c>   2</c></rc>
    <rc><c>C </c><c>   2</c></rc>
    <rc><c>C </c><c>   2</c></rc>
    <rc><c>O </c><c>   3</c></rc>
   </set>
  </array>
  <array name="atomtypes" >
   <dimension dim="1">type</dimension>
   <field type="int">atomspertype</field>
   <field type="string">element</field>
   <field>mass</field>
   <field>valence</field>
   <field type="string">pseudopotential</field>
   <set>
    <rc><c>   7</c><c>H </c><c>      1.00000000</c><c>      1.00000000</c><c> PAW_PBE H 15Jun2001                    </c></rc>
    <rc><c>   6</c><c>C </c><c>     12.01100000</c><c>      4.00000000</c><c> PAW_PBE C 08Apr2002                    </c></rc>
    <rc><c>   1</c><c>O </c><c>     16.00000000</c><c>      6.00000000</c><c> PAW_PBE O 08Apr2002                    </c></rc>
   </set>
  </array>
 </atominfo>
 <structure name="initialpos" >
  <crystal>
   <varray name="basis" >
    <v>      15.00000000       0.00000000       0.00000000 </v>
    <v>       0.00000000      15.00000000       0.00000000 </v>
    <v>       0.00000000       0.00000000      15.00000000 </v>
   </varray>
   <i name="volume">   3375.00000000 </i>
   <varray name="rec_basis" >
    <v>       0.06666667       0.00000000       0.00000000 </v>
    <v>       0.00000000       0.06666667       0.00000000 </v>
    <v>       0.00000000       0.00000000       0.06666667 </v>
   </varray>
  </crystal>
  <varray name="positions" >
   <v>       0.43345454       0.35648954       0.49586537 </v>
   <v>       0.60025984       0.35617101       0.49723369 </v>
   <v>       0.68329340       0.49998587       0.49664205 </v>
   <v>       0.60025644       0.64379853       0.49710613 </v>
   <v>       0.43343273       0.64347869       0.49576813 </v>
   <v>       0.30680543       0.49884698       0.55145562 </v>
   <v>       0.31515852       0.49599907       0.42929441 </v>
   <v>       0.42484707       0.49999523       0.49657148 </v>
   <v>       0.47089311       0.41894144       0.49638009 </v>
   <v>       0.56399912       0.41932651       0.49657387 </v>
   <v>       0.61057478       0.49997970       0.49634337 </v>
   <v>       0.56399208       0.58064777       0.49645263 </v>
   <v>       0.47087827       0.58101857       0.49624935 </v>
   <v>       0.33206666       0.50006664       0.49166667 </v>
  </varray>
  <varray name="selective"  type="logical" >
   <v type="logical" >  F  F  F </v>
   <v type="logical" >  F  F  F </v>
   <v type="logical" >  F  F  F </v>
   <v type="logical" >  F  F  F </v>
   <v type="logical" >  F  F  F </v>
   <v type="logical" >  F  F  F </v>
   <v type="logical" >  F  F  F </v>
   <v type="logical" >  F  F  F </v>
   <v type="logical" >  F  F  F </v>
   <v type="logical" >  F  F  F </v>
   <v type="logical" >  F  F  F </v>
   <v type="logical" >  F  F  F </v>
   <v type="logical" >  F  F  F </v>
   <v type="logical" >  F  F  F </v>
  </varray>
  <nose>
   <v>      -3.00000000       0.00000000       0.00010000       0.00010000 </v>
  </nose>
 </structure>
 <calculation>
  <scstep>
   <time name="dav">   11.34   22.67</time>
   <time name="total">   15.12   30.22</time>
   <energy>
    <i name="alphaZ">      1.78070422 </i>
    <i name="ewald">   2172.92742921 </i>
    <i name="hartreedc">  -3284.45753847 </i>
    <i name="XCdc">    133.11825851 </i>
    <i name="pawpsdc">    783.36328331 </i>
    <i name="pawaedc">   -793.35077082 </i>
    <i name="eentropy">     -0.25315014 </i>
    <i name="bandstr">   -198.94106264 </i>
    <i name="atom">   1402.37696792 </i>
    <i name="e_fr_energy">    216.56412109 </i>
    <i name="e_wo_entrp">    216.81727123 </i>
    <i name="e_0_energy">    216.69069616 </i>
   </energy>
  </scstep>
  <scstep>
   <time name="dav">   14.28   28.53</time>
   <time name="total">   14.28   28.53</time>
   <energy>
    <i name="e_fr_energy">     36.01094223 </i>
    <i name="e_wo_entrp">     36.19218182 </i>
    <i name="e_0_energy">     36.10156203 </i>
   </energy>
  </scstep>
  <scstep>
   <time name="dav">    8.28   16.55</time>
   <time name="total">    8.28   16.55</time>
   <energy>
    <i name="e_fr_energy">    -69.51913019 </i>
    <i name="e_wo_entrp">    -69.51907524 </i>
    <i name="e_0_energy">    -69.51910271 </i>
   </energy>
  </scstep>
  <scstep>
   <time name="dav">   10.63   21.22</time>
   <time name="total">   10.63   21.22</time>
   <energy>
    <i name="e_fr_energy">    -82.04823426 </i>
    <i name="e_wo_entrp">    -82.04783378 </i>
    <i name="e_0_energy">    -82.04803402 </i>
   </energy>
  </scstep>
  <scstep>
   <time name="dav">   10.95   21.89</time>
   <time name="total">   10.95   21.89</time>
   <energy>
    <i name="e_fr_energy">    -82.26917760 </i>
    <i name="e_wo_entrp">    -82.23739883 </i>
    <i name="e_0_energy">    -82.25328821 </i>
   </energy>
  </scstep>
  <scstep>
   <time name="dav">    8.93   17.84</time>
   <time name="total">    8.93   17.84</time>
   <energy>
    <i name="e_fr_energy">    -82.27516215 </i>
    <i name="e_wo_entrp">    -82.23980621 </i>
    <i name="e_0_energy">    -82.25748418 </i>
   </energy>
  </scstep>
  <scstep>
   <time name="dav">   12.13   24.25</time>
   <time name="total">   12.13   24.25</time>
   <energy>
    <i name="e_fr_energy">    -82.27548180 </i>
    <i name="e_wo_entrp">    -82.23971923 </i>
    <i name="e_0_energy">    -82.25760051 </i>
   </energy>
  </scstep>
  <scstep>
   <time name="dav">    8.99   17.96</time>
   <time name="total">    8.99   17.96</time>
   <energy>
    <i name="e_fr_energy">    -82.27549376 </i>
    <i name="e_wo_entrp">    -82.23972449 </i>
    <i name="e_0_energy">    -82.25760913 </i>
   </energy>
  </scstep>
  <scstep>
   <time name="dav">   11.53   23.04</time>
   <time name="total">   11.53   23.04</time>
   <energy>
    <i name="e_fr_energy">    -82.27549448 </i>
    <i name="e_wo_entrp">    -82.23972479 </i>
    <i name="e_0_energy">    -82.25760964 </i>
   </energy>
  </scstep>
  <scstep>
   <time name="dav">   10.26   20.50</time>
   <time name="total">   10.26   20.50</time>
   <energy>
    <i name="alphaZ">      1.78070422 </i>
    <i name="ewald">   2172.92742921 </i>
    <i name="hartreedc">  -3284.45753847 </i>
    <i name="XCdc">    133.11825851 </i>
    <i name="pawpsdc">    783.36328331 </i>
    <i name="pawaedc">   -793.35077082 </i>
    <i name="eentropy">     -0.03576972 </i>
    <i name="bandstr">   -497.99805870 </i>
    <i name="atom">   1402.37696792 </i>
    <i name="e_fr_energy">    -82.27549454 </i>
    <i name="e_wo_entrp">    -82.23972482 </i>
    <i name="e_0_energy">    -82.25760968 </i>
   </energy>
  </scstep>
  <structure>
   <crystal>
    <varray name="basis" >
     <v>      15.00000000       0.00000000       0.00000000 </v>
     <v>       0.00000000      15.00000000       0.00000000 </v>
     <v>       0.00000000       0.00000000      15.00000000 </v>
    </varray>
    <i name="volume">   3375.00000000 </i>
    <varray name="rec_basis" >
     <v>       0.06666667       0.00000000       0.00000000 </v>
     <v>       0.00000000       0.06666667       0.00000000 </v>
     <v>       0.00000000       0.00000000       0.06666667 </v>
    </varray>
   </crystal>
   <varray name="positions" >
    <v>       0.43345454       0.35648954       0.49586537 </v>
    <v>       0.60025984       0.35617101       0.49723369 </v>
    <v>       0.68329340       0.49998587       0.49664205 </v>
    <v>       0.60025644       0.64379853       0.49710613 </v>
    <v>       0.43343273       0.64347869       0.49576813 </v>
    <v>       0.30680543       0.49884698       0.55145562 </v>
    <v>       0.31515852       0.49599907       0.42929441 </v>
    <v>       0.42484707       0.49999523       0.49657148 </v>
    <v>       0.47089311       0.41894144       0.49638009 </v>
    <v>       0.56399912       0.41932651       0.49657387 </v>
    <v>       0.61057478       0.49997970       0.49634337 </v>
    <v>       0.56399208       0.58064777       0.49645263 </v>
    <v>       0.47087827       0.58101857       0.49624935 </v>
    <v>       0.33206666       0.50006664       0.49166667 </v>
   </varray>
  </structure>
  <varray name="forces" >
   <v>       0.05066906       0.03903076       0.02162283 </v>
   <v>      -0.04160750       0.03277347      -0.02353834 </v>
   <v>       0.00838107      -0.00089125      -0.00389809 </v>
   <v>      -0.04177065      -0.03189464      -0.02070721 </v>
   <v>       0.04701295      -0.04586736       0.00641849 </v>
   <v>      -2.08009729      -0.11650817       2.65850473 </v>
   <v>      -1.98816283      -0.27752802      -3.17136341 </v>
   <v>       2.82102815       0.03602196       0.27216116 </v>
   <v>      -0.24432628      -0.01249984      -0.04451438 </v>
   <v>      -0.02343118      -0.02482646       0.00160798 </v>
   <v>       0.00557756      -0.00729971       0.06191301 </v>
   <v>      -0.03402355       0.03452043       0.00691215 </v>
   <v>      -0.23812321       0.00702595      -0.01751963 </v>
   <v>       1.75887370       0.36794288       0.25240071 </v>
  </varray>
  <varray name="stress" >
   <v>       1.12299105       0.06952441       0.08043544 </v>
   <v>       0.06952441      -0.95501286       0.07655087 </v>
   <v>       0.08043544       0.07655087       1.64474372 </v>
  </varray>
  <energy>
   <i name="e_fr_energy">    -82.63135227 </i>
   <i name="e_wo_entrp">    -82.61346741 </i>
   <i name="e_0_energy">     -0.03576972 </i>
  </energy>
  <time name="totalsc">  136.25  272.24</time>
  <eigenvalues>
   <array>
    <dimension dim="1">band</dimension>
    <dimension dim="2">kpoint</dimension>
    <dimension dim="3">spin</dimension>
    <field>eigene</field>
    <field>occ</field>
    <set>
     <set comment="spin 1">
      <set comment="kpoint 1">
       <r>  -29.3057    1.0000 </r>
       <r>  -21.6512    1.0000 </r>
       <r>  -18.9797    1.0000 </r>
       <r>  -18.9074    1.0000 </r>
       <r>  -17.4094    1.0000 </r>
       <r>  -16.0505    1.0000 </r>
       <r>  -15.5144    1.0000 </r>
       <r>  -14.0277    1.0000 </r>
       <r>  -12.4693    1.0000 </r>
       <r>  -12.0732    1.0000 </r>
       <r>  -11.0304    1.0000 </r>
       <r>  -10.6207    1.0000 </r>
       <r>   -9.7565    1.0000 </r>
       <r>   -9.4970    1.0000 </r>
       <r>   -9.1310    1.0000 </r>
       <r>   -8.4419    1.0000 </r>
       <r>   -6.8201    1.0000 </r>
       <r>   -6.7371    1.0000 </r>
       <r>   -2.2265    0.9422 </r>
       <r>   -1.7550    0.0391 </r>
       <r>   -1.6558    0.0069 </r>
       <r>   -0.6600    0.0000 </r>
       <r>   -0.5327    0.0000 </r>
       <r>   -0.1352    0.0000 </r>
       <r>    0.0146    0.0000 </r>
       <r>    0.1409    0.0000 </r>
       <r>    0.2475    0.0000 </r>
       <r>    0.5097    0.0000 </r>
       <r>    0.5180    0.0000 </r>
       <r>    0.6030    0.0000 </r>
       <r>    0.7502    0.0000 </r>
       <r>    0.8397    0.0000 </r>
       <r>    0.8625    0.0000 </r>
      </set>
     </set>
     <set comment="spin 2">
      <set comment="kpoint 1">
       <r>  -29.1577    1.0000 </r>
       <r>  -21.6263    1.0000 </r>
       <r>  -18.9193    1.0000 </r>
       <r>  -18.8981    1.0000 </r>
       <r>  -17.0974    1.0000 </r>
       <r>  -15.9470    1.0000 </r>
       <r>  -15.5007    1.0000 </r>
       <r>  -13.9776    1.0000 </r>
       <r>  -12.4464    1.0000 </r>
       <r>  -12.0352    1.0000 </r>
       <r>  -11.0153    1.0000 </r>
       <r>  -10.6129    1.0000 </r>
       <r>   -9.6716    1.0000 </r>
       <r>   -9.4601    1.0000 </r>
       <r>   -9.1207    1.0000 </r>
       <r>   -8.4108    1.0000 </r>
       <r>   -6.7541    1.0000 </r>
       <r>   -6.7263    1.0000 </r>
       <r>   -1.6555    0.0069 </r>
       <r>   -1.6387    0.0049 </r>
       <r>   -1.1111    0.0000 </r>
       <r>   -0.4301    0.0000 </r>
       <r>    0.0909    0.0000 </r>
       <r>    0.3231    0.0000 </r>
       <r>    0.3406    0.0000 </r>
       <r>    0.4319    0.0000 </r>
       <r>    0.5834    0.0000 </r>
       <r>    0.7790    0.0000 </r>
       <r>    0.8614    0.0000 </r>
       <r>    0.8751    0.0000 </r>
       <r>    1.0935    0.0000 </r>
       <r>    1.1254    0.0000 </r>
       <r>    1.1868    0.0000 </r>
      </set>
     </set>
    </set>
   </array>
  </eigenvalues>
  <separator name="orbital magnetization" >
   <v name="MAGDIPOLOUT">      0.00000000      0.00000000      0.00000000</v>
  </separator>
  <dos>
   <i name="efermi">     -2.00397430 </i>
   <total>
    <array>
     <dimension dim="1">gridpoints</dimension>
     <dimension dim="2">spin</dimension>
     <field>energy</field>
     <field>total</field>
     <field>integrated</field>
     <set>
      <set comment="spin 1">
       <r>   -31.3057     0.0000     0.0000 </r>
       <r>   -31.1907     0.0000     0.0000 </r>
       <r>   -31.0757     0.0000     0.0000 </r>
       <r>   -30.9607     0.0000     0.0000 </r>
       <r>   -30.8458     0.0000     0.0000 </r>
       <r>   -30.7308     0.0000     0.0000 </r>
       <r>   -30.6158     0.0000     0.0000 </r>
       <r>   -30.5009     0.0000     0.0000 </r>
       <r>   -30.3859     0.0000     0.0000 </r>
       <r>   -30.2709     0.0000     0.0000 </r>
       <r>   -30.1559     0.0000     0.0000 </r>
       <r>   -30.0410     0.0000     0.0000 </r>
       <r>   -29.9260     0.0000     0.0000 </r>
       <r>   -29.8110     0.0015     0.0002 </r>
       <r>   -29.6960     0.0236     0.0029 </r>
       <r>   -29.5811     0.1989     0.0258 </r>
       <r>   -29.4661     0.8923     0.1283 </r>
       <r>   -29.3511     2.1367     0.3740 </r>
       <r>   -29.2361     2.7357     0.6886 </r>
       <r>   -29.1212     1.8739     0.9040 </r>
       <r>   -29.0062     0.6861     0.9829 </r>
       <r>   -28.8912     0.1340     0.9983 </r>
       <r>   -28.7762     0.0139     0.9999 </r>
       <r>   -28.6613     0.0008     1.0000 </r>
       <r>   -28.5463     0.0000     1.0000 </r>
       <r>   -28.4313     0.0000     1.0000 </r>
       <r>   -28.3163     0.0000     1.0000 </r>
       <r>   -28.2014     0.0000     1.0000 </r>
       <r>   -28.0864     0.0000     1.0000 </r>
       <r>   -27.9714     0.0000     1.0000 </r>
       <r>   -27.8564     0.0000     1.0000 </r>
       <r>   -27.7415     0.0000     1.0000 </r>
       <r>   -27.6265     0.0000     1.0000 </r>
       <r>   -27.5115     0.0000     1.0000 </r>
       <r>   -27.3965     0.0000     1.0000 </r>
       <r>   -27.2816     0.0000     1.0000 </r>
       <r>   -27.1666     0.0000     1.0000 </r>
       <r>   -27.0516     0.0000     1.0000 </r>
       <r>   -26.9366     0.0000     1.0000 </r>
       <r>   -26.8217     0.0000     1.0000 </r>
       <r>   -26.7067     0.0000     1.0000 </r>
       <r>   -26.5917     0.0000     1.0000 </r>
       <r>   -26.4767     0.0000     1.0000 </r>
       <r>   -26.3618     0.0000     1.0000 </r>
       <r>   -26.2468     0.0000     1.0000 </r>
       <r>   -26.1318     0.0000     1.0000 </r>
       <r>   -26.0168     0.0000     1.0000 </r>
       <r>   -25.9019     0.0000     1.0000 </r>
       <r>   -25.7869     0.0000     1.0000 </r>
       <r>   -25.6719     0.0000     1.0000 </r>
       <r>   -25.5569     0.0000     1.0000 </r>
       <r>   -25.4420     0.0000     1.0000 </r>
       <r>   -25.3270     0.0000     1.0000 </r>
       <r>   -25.2120     0.0000     1.0000 </r>
       <r>   -25.0970     0.0000     1.0000 </r>
       <r>   -24.9821     0.0000     1.0000 </r>
       <r>   -24.8671     0.0000     1.0000 </r>
       <r>   -24.7521     0.0000     1.0000 </r>
       <r>   -24.6371     0.0000     1.0000 </r>
       <r>   -24.5222     0.0000     1.0000 </r>
       <r>   -24.4072     0.0000     1.0000 </r>
       <r>   -24.2922     0.0000     1.0000 </r>
       <r>   -24.1772     0.0000     1.0000 </r>
       <r>   -24.0623     0.0000     1.0000 </r>
       <r>   -23.9473     0.0000     1.0000 </r>
       <r>   -23.8323     0.0000     1.0000 </r>
       <r>   -23.7173     0.0000     1.0000 </r>
       <r>   -23.6024     0.0000     1.0000 </r>
       <r>   -23.4874     0.0000     1.0000 </r>
       <r>   -23.3724     0.0000     1.0000 </r>
       <r>   -23.2574     0.0000     1.0000 </r>
       <r>   -23.1425     0.0000     1.0000 </r>
       <r>   -23.0275     0.0000     1.0000 </r>
       <r>   -22.9125     0.0000     1.0000 </r>
       <r>   -22.7975     0.0000     1.0000 </r>
       <r>   -22.6826     0.0000     1.0000 </r>
       <r>   -22.5676     0.0000     1.0000 </r>
       <r>   -22.4526     0.0000     1.0000 </r>
       <r>   -22.3376     0.0000     1.0000 </r>
       <r>   -22.2227     0.0002     1.0000 </r>
       <r>   -22.1077     0.0052     1.0006 </r>
       <r>   -21.9927     0.0630     1.0079 </r>
       <r>   -21.8777     0.4062     1.0546 </r>
       <r>   -21.7628     1.3956     1.2150 </r>
       <r>   -21.6478     2.5615     1.5095 </r>
       <r>   -21.5328     2.5148     1.7987 </r>
       <r>   -21.4178     1.3207     1.9505 </r>
       <r>   -21.3029     0.3705     1.9931 </r>
       <r>   -21.1879     0.0554     1.9995 </r>
       <r>   -21.0729     0.0044     2.0000 </r>
       <r>   -20.9579     0.0002     2.0000 </r>
       <r>   -20.8430     0.0000     2.0000 </r>
       <r>   -20.7280     0.0000     2.0000 </r>
       <r>   -20.6130     0.0000     2.0000 </r>
       <r>   -20.4980     0.0000     2.0000 </r>
       <r>   -20.3831     0.0000     2.0000 </r>
       <r>   -20.2681     0.0000     2.0000 </r>
       <r>   -20.1531     0.0000     2.0000 </r>
       <r>   -20.0381     0.0000     2.0000 </r>
       <r>   -19.9232     0.0000     2.0000 </r>
       <r>   -19.8082     0.0000     2.0000 </r>
       <r>   -19.6932     0.0000     2.0000 </r>
       <r>   -19.5782     0.0001     2.0000 </r>
       <r>   -19.4633     0.0030     2.0004 </r>
       <r>   -19.3483     0.0446     2.0055 </r>
       <r>   -19.2333     0.3616     2.0471 </r>
       <r>   -19.1183     1.6031     2.2314 </r>
       <r>   -19.0034     3.9215     2.6823 </r>
       <r>   -18.8884     5.3223     3.2942 </r>
       <r>   -18.7734     4.0160     3.7559 </r>
       <r>   -18.6584     1.6816     3.9493 </r>
       <r>   -18.5435     0.3886     3.9939 </r>
       <r>   -18.4285     0.0492     3.9996 </r>
       <r>   -18.3135     0.0034     4.0000 </r>
       <r>   -18.1986     0.0001     4.0000 </r>
       <r>   -18.0836     0.0000     4.0000 </r>
       <r>   -17.9686     0.0003     4.0000 </r>
       <r>   -17.8536     0.0070     4.0008 </r>
       <r>   -17.7387     0.0792     4.0100 </r>
       <r>   -17.6237     0.4776     4.0649 </r>
       <r>   -17.5087     1.5343     4.2413 </r>
       <r>   -17.3937     2.6339     4.5441 </r>
       <r>   -17.2788     2.4188     4.8222 </r>
       <r>   -17.1638     1.1880     4.9588 </r>
       <r>   -17.0488     0.3116     4.9946 </r>
       <r>   -16.9338     0.0435     4.9996 </r>
       <r>   -16.8189     0.0032     5.0000 </r>
       <r>   -16.7039     0.0001     5.0000 </r>
       <r>   -16.5889     0.0006     5.0001 </r>
       <r>   -16.4739     0.0114     5.0014 </r>
       <r>   -16.3590     0.1149     5.0146 </r>
       <r>   -16.2440     0.6180     5.0856 </r>
       <r>   -16.1290     1.7724     5.2894 </r>
       <r>   -16.0140     2.7183     5.6020 </r>
       <r>   -15.8991     2.2544     5.8612 </r>
       <r>   -15.7841     1.1944     5.9985 </r>
       <r>   -15.6691     1.1746     6.1335 </r>
       <r>   -15.5541     2.2239     6.3892 </r>
       <r>   -15.4392     2.7266     6.7027 </r>
       <r>   -15.3242     1.8092     6.9107 </r>
       <r>   -15.2092     0.6420     6.9845 </r>
       <r>   -15.0942     0.1215     6.9985 </r>
       <r>   -14.9793     0.0122     6.9999 </r>
       <r>   -14.8643     0.0007     7.0000 </r>
       <r>   -14.7493     0.0000     7.0000 </r>
       <r>   -14.6343     0.0001     7.0000 </r>
       <r>   -14.5194     0.0021     7.0003 </r>
       <r>   -14.4044     0.0314     7.0039 </r>
       <r>   -14.2894     0.2457     7.0321 </r>
       <r>   -14.1744     1.0229     7.1497 </r>
       <r>   -14.0595     2.2736     7.4111 </r>
       <r>   -13.9445     2.7025     7.7219 </r>
       <r>   -13.8295     1.7186     7.9194 </r>
       <r>   -13.7145     0.5841     7.9866 </r>
       <r>   -13.5996     0.1058     7.9988 </r>
       <r>   -13.4846     0.0102     7.9999 </r>
       <r>   -13.3696     0.0005     8.0000 </r>
       <r>   -13.2546     0.0000     8.0000 </r>
       <r>   -13.1397     0.0000     8.0000 </r>
       <r>   -13.0247     0.0004     8.0000 </r>
       <r>   -12.9097     0.0076     8.0009 </r>
       <r>   -12.7947     0.0849     8.0107 </r>
       <r>   -12.6798     0.5014     8.0683 </r>
       <r>   -12.5648     1.5797     8.2500 </r>
       <r>   -12.4498     2.6843     8.5586 </r>
       <r>   -12.3348     2.6324     8.8612 </r>
       <r>   -12.2199     2.1718     9.1109 </r>
       <r>   -12.1049     2.5693     9.4063 </r>
       <r>   -11.9899     2.7426     9.7217 </r>
       <r>   -11.8749     1.7206     9.9195 </r>
       <r>   -11.7600     0.5836     9.9866 </r>
       <r>   -11.6450     0.1058     9.9988 </r>
       <r>   -11.5300     0.0119    10.0001 </r>
       <r>   -11.4150     0.0272    10.0033 </r>
       <r>   -11.3001     0.2177    10.0283 </r>
       <r>   -11.1851     0.9465    10.1371 </r>
       <r>   -11.0701     2.2020    10.3903 </r>
       <r>   -10.9551     2.7966    10.7118 </r>
       <r>   -10.8402     2.2552    10.9711 </r>
       <r>   -10.7252     2.1174    11.2146 </r>
       <r>   -10.6102     2.7269    11.5281 </r>
       <r>   -10.4952     2.4731    11.8124 </r>
       <r>   -10.3803     1.2439    11.9555 </r>
       <r>   -10.2653     0.3368    11.9942 </r>
       <r>   -10.1503     0.0701    12.0022 </r>
       <r>   -10.0353     0.1924    12.0244 </r>
       <r>    -9.9204     0.8718    12.1246 </r>
       <r>    -9.8054     2.2148    12.3792 </r>
       <r>    -9.6904     3.3588    12.7654 </r>
       <r>    -9.5754     3.6928    13.1900 </r>
       <r>    -9.4605     3.5098    13.5935 </r>
       <r>    -9.3455     2.8462    13.9208 </r>
       <r>    -9.2305     2.5240    14.2110 </r>
       <r>    -9.1155     2.8623    14.5401 </r>
       <r>    -9.0006     2.4492    14.8217 </r>
       <r>    -8.8856     1.1990    14.9595 </r>
       <r>    -8.7706     0.3926    15.0046 </r>
       <r>    -8.6556     0.5248    15.0650 </r>
       <r>    -8.5407     1.5442    15.2425 </r>
       <r>    -8.4257     2.6370    15.5457 </r>
       <r>    -8.3107     2.4139    15.8233 </r>
       <r>    -8.1957     1.1818    15.9591 </r>
       <r>    -8.0808     0.3090    15.9947 </r>
       <r>    -7.9658     0.0430    15.9996 </r>
       <r>    -7.8508     0.0032    16.0000 </r>
       <r>    -7.7358     0.0001    16.0000 </r>
       <r>    -7.6209     0.0000    16.0000 </r>
       <r>    -7.5059     0.0000    16.0000 </r>
       <r>    -7.3909     0.0002    16.0000 </r>
       <r>    -7.2759     0.0059    16.0007 </r>
       <r>    -7.1610     0.0751    16.0093 </r>
       <r>    -7.0460     0.5240    16.0696 </r>
       <r>    -6.9310     2.0179    16.3016 </r>
       <r>    -6.8160     4.3331    16.7998 </r>
       <r>    -6.7011     5.2252    17.4005 </r>
       <r>    -6.5861     3.5454    17.8082 </r>
       <r>    -6.4711     1.3483    17.9632 </r>
       <r>    -6.3562     0.2849    17.9959 </r>
       <r>    -6.2412     0.0331    17.9998 </r>
       <r>    -6.1262     0.0021    18.0000 </r>
       <r>    -6.0112     0.0001    18.0000 </r>
       <r>    -5.8963     0.0000    18.0000 </r>
       <r>    -5.7813     0.0000    18.0000 </r>
       <r>    -5.6663     0.0000    18.0000 </r>
       <r>    -5.5513     0.0000    18.0000 </r>
       <r>    -5.4364     0.0000    18.0000 </r>
       <r>    -5.3214     0.0000    18.0000 </r>
       <r>    -5.2064     0.0000    18.0000 </r>
       <r>    -5.0914     0.0000    18.0000 </r>
       <r>    -4.9765     0.0000    18.0000 </r>
       <r>    -4.8615     0.0000    18.0000 </r>
       <r>    -4.7465     0.0000    18.0000 </r>
       <r>    -4.6315     0.0000    18.0000 </r>
       <r>    -4.5166     0.0000    18.0000 </r>
       <r>    -4.4016     0.0000    18.0000 </r>
       <r>    -4.2866     0.0000    18.0000 </r>
       <r>    -4.1716     0.0000    18.0000 </r>
       <r>    -4.0567     0.0000    18.0000 </r>
       <r>    -3.9417     0.0000    18.0000 </r>
       <r>    -3.8267     0.0000    18.0000 </r>
       <r>    -3.7117     0.0000    18.0000 </r>
       <r>    -3.5968     0.0000    18.0000 </r>
       <r>    -3.4818     0.0000    18.0000 </r>
       <r>    -3.3668     0.0000    18.0000 </r>
       <r>    -3.2518     0.0000    18.0000 </r>
       <r>    -3.1369     0.0000    18.0000 </r>
       <r>    -3.0219     0.0000    18.0000 </r>
       <r>    -2.9069     0.0000    18.0000 </r>
       <r>    -2.7919     0.0003    18.0000 </r>
       <r>    -2.6770     0.0060    18.0007 </r>
       <r>    -2.5620     0.0706    18.0088 </r>
       <r>    -2.4470     0.4404    18.0595 </r>
       <r>    -2.3320     1.4640    18.2278 </r>
       <r>    -2.2171     2.6041    18.5272 </r>
       <r>    -2.1021     2.5324    18.8184 </r>
       <r>    -1.9871     1.7073    19.0147 </r>
       <r>    -1.8721     2.1389    19.2606 </r>
       <r>    -1.7572     4.0831    19.7300 </r>
       <r>    -1.6422     5.1803    20.3256 </r>
       <r>    -1.5272     3.8187    20.7647 </r>
       <r>    -1.4122     1.6099    20.9498 </r>
       <r>    -1.2973     0.3827    20.9938 </r>
       <r>    -1.1823     0.0513    20.9997 </r>
       <r>    -1.0673     0.0206    21.0020 </r>
       <r>    -0.9523     0.1635    21.0208 </r>
       <r>    -0.8374     0.8664    21.1205 </r>
       <r>    -0.7224     2.6002    21.4194 </r>
       <r>    -0.6074     4.5631    21.9441 </r>
       <r>    -0.4924     4.8355    22.5000 </r>
       <r>    -0.3775     3.3681    22.8873 </r>
       <r>    -0.2625     2.5540    23.1809 </r>
       <r>    -0.1475     3.7416    23.6111 </r>
       <r>    -0.0325     5.7252    24.2693 </r>
       <r>     0.0824     7.1034    25.0861 </r>
       <r>     0.1974     7.4005    25.9369 </r>
       <r>     0.3124     6.8224    26.7213 </r>
       <r>     0.4274     7.0968    27.5373 </r>
       <r>     0.5423     9.0081    28.5730 </r>
       <r>     0.6573    10.3631    29.7645 </r>
       <r>     0.7723    10.3717    30.9570 </r>
       <r>     0.8873     9.1092    32.0043 </r>
       <r>     1.0022     5.8149    32.6729 </r>
       <r>     1.1172     2.2745    32.9344 </r>
       <r>     1.2322     0.5048    32.9924 </r>
       <r>     1.3472     0.0616    32.9995 </r>
       <r>     1.4621     0.0041    33.0000 </r>
       <r>     1.5771     0.0001    33.0000 </r>
       <r>     1.6921     0.0000    33.0000 </r>
       <r>     1.8071     0.0000    33.0000 </r>
       <r>     1.9220     0.0000    33.0000 </r>
       <r>     2.0370     0.0000    33.0000 </r>
       <r>     2.1520     0.0000    33.0000 </r>
       <r>     2.2670     0.0000    33.0000 </r>
       <r>     2.3819     0.0000    33.0000 </r>
       <r>     2.4969     0.0000    33.0000 </r>
       <r>     2.6119     0.0000    33.0000 </r>
       <r>     2.7269     0.0000    33.0000 </r>
       <r>     2.8418     0.0000    33.0000 </r>
       <r>     2.9568     0.0000    33.0000 </r>
       <r>     3.0718     0.0000    33.0000 </r>
       <r>     3.1868     0.0000    33.0000 </r>
      </set>
      <set comment="spin 2">
       <r>   -31.3057     0.0000     0.0000 </r>
       <r>   -31.1907     0.0000     0.0000 </r>
       <r>   -31.0757     0.0000     0.0000 </r>
       <r>   -30.9607     0.0000     0.0000 </r>
       <r>   -30.8458     0.0000     0.0000 </r>
       <r>   -30.7308     0.0000     0.0000 </r>
       <r>   -30.6158     0.0000     0.0000 </r>
       <r>   -30.5009     0.0000     0.0000 </r>
       <r>   -30.3859     0.0000     0.0000 </r>
       <r>   -30.2709     0.0000     0.0000 </r>
       <r>   -30.1559     0.0000     0.0000 </r>
       <r>   -30.0410     0.0000     0.0000 </r>
       <r>   -29.9260     0.0000     0.0000 </r>
       <r>   -29.8110     0.0000     0.0000 </r>
       <r>   -29.6960     0.0006     0.0001 </r>
       <r>   -29.5811     0.0114     0.0014 </r>
       <r>   -29.4661     0.1151     0.0146 </r>
       <r>   -29.3511     0.6188     0.0858 </r>
       <r>   -29.2361     1.7736     0.2897 </r>
       <r>   -29.1212     2.7169     0.6021 </r>
       <r>   -29.0062     2.2266     0.8581 </r>
       <r>   -28.8912     0.9758     0.9703 </r>
       <r>   -28.7762     0.2283     0.9965 </r>
       <r>   -28.6613     0.0284     0.9998 </r>
       <r>   -28.5463     0.0019     1.0000 </r>
       <r>   -28.4313     0.0001     1.0000 </r>
       <r>   -28.3163     0.0000     1.0000 </r>
       <r>   -28.2014     0.0000     1.0000 </r>
       <r>   -28.0864     0.0000     1.0000 </r>
       <r>   -27.9714     0.0000     1.0000 </r>
       <r>   -27.8564     0.0000     1.0000 </r>
       <r>   -27.7415     0.0000     1.0000 </r>
       <r>   -27.6265     0.0000     1.0000 </r>
       <r>   -27.5115     0.0000     1.0000 </r>
       <r>   -27.3965     0.0000     1.0000 </r>
       <r>   -27.2816     0.0000     1.0000 </r>
       <r>   -27.1666     0.0000     1.0000 </r>
       <r>   -27.0516     0.0000     1.0000 </r>
       <r>   -26.9366     0.0000     1.0000 </r>
       <r>   -26.8217     0.0000     1.0000 </r>
       <r>   -26.7067     0.0000     1.0000 </r>
       <r>   -26.5917     0.0000     1.0000 </r>
       <r>   -26.4767     0.0000     1.0000 </r>
       <r>   -26.3618     0.0000     1.0000 </r>
       <r>   -26.2468     0.0000     1.0000 </r>
       <r>   -26.1318     0.0000     1.0000 </r>
       <r>   -26.0168     0.0000     1.0000 </r>
       <r>   -25.9019     0.0000     1.0000 </r>
       <r>   -25.7869     0.0000     1.0000 </r>
       <r>   -25.6719     0.0000     1.0000 </r>
       <r>   -25.5569     0.0000     1.0000 </r>
       <r>   -25.4420     0.0000     1.0000 </r>
       <r>   -25.3270     0.0000     1.0000 </r>
       <r>   -25.2120     0.0000     1.0000 </r>
       <r>   -25.0970     0.0000     1.0000 </r>
       <r>   -24.9821     0.0000     1.0000 </r>
       <r>   -24.8671     0.0000     1.0000 </r>
       <r>   -24.7521     0.0000     1.0000 </r>
       <r>   -24.6371     0.0000     1.0000 </r>
       <r>   -24.5222     0.0000     1.0000 </r>
       <r>   -24.4072     0.0000     1.0000 </r>
       <r>   -24.2922     0.0000     1.0000 </r>
       <r>   -24.1772     0.0000     1.0000 </r>
       <r>   -24.0623     0.0000     1.0000 </r>
       <r>   -23.9473     0.0000     1.0000 </r>
       <r>   -23.8323     0.0000     1.0000 </r>
       <r>   -23.7173     0.0000     1.0000 </r>
       <r>   -23.6024     0.0000     1.0000 </r>
       <r>   -23.4874     0.0000     1.0000 </r>
       <r>   -23.3724     0.0000     1.0000 </r>
       <r>   -23.2574     0.0000     1.0000 </r>
       <r>   -23.1425     0.0000     1.0000 </r>
       <r>   -23.0275     0.0000     1.0000 </r>
       <r>   -22.9125     0.0000     1.0000 </r>
       <r>   -22.7975     0.0000     1.0000 </r>
       <r>   -22.6826     0.0000     1.0000 </r>
       <r>   -22.5676     0.0000     1.0000 </r>
       <r>   -22.4526     0.0000     1.0000 </r>
       <r>   -22.3376     0.0000     1.0000 </r>
       <r>   -22.2227     0.0001     1.0000 </r>
       <r>   -22.1077     0.0028     1.0003 </r>
       <r>   -21.9927     0.0387     1.0048 </r>
       <r>   -21.8777     0.2862     1.0377 </r>
       <r>   -21.7628     1.1266     1.1672 </r>
       <r>   -21.6478     2.3682     1.4395 </r>
       <r>   -21.5328     2.6625     1.7456 </r>
       <r>   -21.4178     1.6013     1.9297 </r>
       <r>   -21.3029     0.5146     1.9889 </r>
       <r>   -21.1879     0.0882     1.9990 </r>
       <r>   -21.0729     0.0080     2.0000 </r>
       <r>   -20.9579     0.0004     2.0000 </r>
       <r>   -20.8430     0.0000     2.0000 </r>
       <r>   -20.7280     0.0000     2.0000 </r>
       <r>   -20.6130     0.0000     2.0000 </r>
       <r>   -20.4980     0.0000     2.0000 </r>
       <r>   -20.3831     0.0000     2.0000 </r>
       <r>   -20.2681     0.0000     2.0000 </r>
       <r>   -20.1531     0.0000     2.0000 </r>
       <r>   -20.0381     0.0000     2.0000 </r>
       <r>   -19.9232     0.0000     2.0000 </r>
       <r>   -19.8082     0.0000     2.0000 </r>
       <r>   -19.6932     0.0000     2.0000 </r>
       <r>   -19.5782     0.0000     2.0000 </r>
       <r>   -19.4633     0.0008     2.0001 </r>
       <r>   -19.3483     0.0161     2.0019 </r>
       <r>   -19.2333     0.1753     2.0221 </r>
       <r>   -19.1183     1.0202     2.1394 </r>
       <r>   -19.0034     3.1760     2.5045 </r>
       <r>   -18.8884     5.3007     3.1140 </r>
       <r>   -18.7734     4.7485     3.6599 </r>
       <r>   -18.6584     2.2827     3.9224 </r>
       <r>   -18.5435     0.5879     3.9900 </r>
       <r>   -18.4285     0.0809     3.9993 </r>
       <r>   -18.3135     0.0059     4.0000 </r>
       <r>   -18.1986     0.0002     4.0000 </r>
       <r>   -18.0836     0.0000     4.0000 </r>
       <r>   -17.9686     0.0000     4.0000 </r>
       <r>   -17.8536     0.0000     4.0000 </r>
       <r>   -17.7387     0.0000     4.0000 </r>
       <r>   -17.6237     0.0008     4.0001 </r>
       <r>   -17.5087     0.0149     4.0018 </r>
       <r>   -17.3937     0.1413     4.0181 </r>
       <r>   -17.2788     0.7113     4.0999 </r>
       <r>   -17.1638     1.9094     4.3194 </r>
       <r>   -17.0488     2.7400     4.6344 </r>
       <r>   -16.9338     2.1036     4.8763 </r>
       <r>   -16.8189     0.8635     4.9756 </r>
       <r>   -16.7039     0.1891     4.9973 </r>
       <r>   -16.5889     0.0221     4.9998 </r>
       <r>   -16.4739     0.0022     5.0001 </r>
       <r>   -16.3590     0.0148     5.0018 </r>
       <r>   -16.2440     0.1398     5.0179 </r>
       <r>   -16.1290     0.7060     5.0990 </r>
       <r>   -16.0140     1.9031     5.3178 </r>
       <r>   -15.8991     2.7591     5.6351 </r>
       <r>   -15.7841     2.2857     5.8979 </r>
       <r>   -15.6691     1.6901     6.0922 </r>
       <r>   -15.5541     2.2433     6.3501 </r>
       <r>   -15.4392     2.7664     6.6682 </r>
       <r>   -15.3242     1.9645     6.8940 </r>
       <r>   -15.2092     0.7508     6.9804 </r>
       <r>   -15.0942     0.1532     6.9980 </r>
       <r>   -14.9793     0.0166     6.9999 </r>
       <r>   -14.8643     0.0010     7.0000 </r>
       <r>   -14.7493     0.0000     7.0000 </r>
       <r>   -14.6343     0.0000     7.0000 </r>
       <r>   -14.5194     0.0005     7.0001 </r>
       <r>   -14.4044     0.0105     7.0013 </r>
       <r>   -14.2894     0.1083     7.0137 </r>
       <r>   -14.1744     0.5934     7.0820 </r>
       <r>   -14.0595     1.7337     7.2813 </r>
       <r>   -13.9445     2.7068     7.5925 </r>
       <r>   -13.8295     2.2609     7.8524 </r>
       <r>   -13.7145     1.0099     7.9686 </r>
       <r>   -13.5996     0.2408     7.9962 </r>
       <r>   -13.4846     0.0306     7.9998 </r>
       <r>   -13.3696     0.0021     8.0000 </r>
       <r>   -13.2546     0.0001     8.0000 </r>
       <r>   -13.1397     0.0000     8.0000 </r>
       <r>   -13.0247     0.0002     8.0000 </r>
       <r>   -12.9097     0.0044     8.0005 </r>
       <r>   -12.7947     0.0554     8.0069 </r>
       <r>   -12.6798     0.3705     8.0495 </r>
       <r>   -12.5648     1.3215     8.2014 </r>
       <r>   -12.4498     2.5287     8.4922 </r>
       <r>   -12.3348     2.6952     8.8020 </r>
       <r>   -12.2199     2.0809     9.0413 </r>
       <r>   -12.1049     2.2789     9.3033 </r>
       <r>   -11.9899     2.7985     9.6251 </r>
       <r>   -11.8749     2.1431     9.8715 </r>
       <r>   -11.7600     0.8936     9.9742 </r>
       <r>   -11.6450     0.1993     9.9971 </r>
       <r>   -11.5300     0.0248    10.0000 </r>
       <r>   -11.4150     0.0208    10.0023 </r>
       <r>   -11.3001     0.1712    10.0220 </r>
       <r>   -11.1851     0.8086    10.1150 </r>
       <r>   -11.0701     2.0423    10.3498 </r>
       <r>   -10.9551     2.8069    10.6725 </r>
       <r>   -10.8402     2.3810    10.9463 </r>
       <r>   -10.7252     2.1506    11.1936 </r>
       <r>   -10.6102     2.7139    11.5056 </r>
       <r>   -10.4952     2.5367    11.7972 </r>
       <r>   -10.3803     1.3289    11.9500 </r>
       <r>   -10.2653     0.3740    11.9930 </r>
       <r>   -10.1503     0.0590    11.9998 </r>
       <r>   -10.0353     0.0456    12.0051 </r>
       <r>    -9.9204     0.3027    12.0399 </r>
       <r>    -9.8054     1.2137    12.1794 </r>
       <r>    -9.6904     2.7785    12.4989 </r>
       <r>    -9.5754     4.0093    12.9598 </r>
       <r>    -9.4605     4.1715    13.4395 </r>
       <r>    -9.3455     3.4539    13.8366 </r>
       <r>    -9.2305     2.8606    14.1655 </r>
       <r>    -9.1155     2.9700    14.5069 </r>
       <r>    -9.0006     2.5621    14.8015 </r>
       <r>    -8.8856     1.3098    14.9521 </r>
       <r>    -8.7706     0.4061    14.9988 </r>
       <r>    -8.6556     0.3686    15.0412 </r>
       <r>    -8.5407     1.2004    15.1792 </r>
       <r>    -8.4257     2.4254    15.4581 </r>
       <r>    -8.3107     2.6298    15.7604 </r>
       <r>    -8.1957     1.5255    15.9358 </r>
       <r>    -8.0808     0.4728    15.9902 </r>
       <r>    -7.9658     0.0781    15.9992 </r>
       <r>    -7.8508     0.0069    16.0000 </r>
       <r>    -7.7358     0.0003    16.0000 </r>
       <r>    -7.6209     0.0000    16.0000 </r>
       <r>    -7.5059     0.0000    16.0000 </r>
       <r>    -7.3909     0.0000    16.0000 </r>
       <r>    -7.2759     0.0014    16.0002 </r>
       <r>    -7.1610     0.0252    16.0031 </r>
       <r>    -7.0460     0.2463    16.0314 </r>
       <r>    -6.9310     1.2861    16.1792 </r>
       <r>    -6.8160     3.6017    16.5934 </r>
       <r>    -6.7011     5.4221    17.2168 </r>
       <r>    -6.5861     4.3919    17.7217 </r>
       <r>    -6.4711     1.9132    17.9417 </r>
       <r>    -6.3562     0.4474    17.9931 </r>
       <r>    -6.2412     0.0560    17.9996 </r>
       <r>    -6.1262     0.0037    18.0000 </r>
       <r>    -6.0112     0.0001    18.0000 </r>
       <r>    -5.8963     0.0000    18.0000 </r>
       <r>    -5.7813     0.0000    18.0000 </r>
       <r>    -5.6663     0.0000    18.0000 </r>
       <r>    -5.5513     0.0000    18.0000 </r>
       <r>    -5.4364     0.0000    18.0000 </r>
       <r>    -5.3214     0.0000    18.0000 </r>
       <r>    -5.2064     0.0000    18.0000 </r>
       <r>    -5.0914     0.0000    18.0000 </r>
       <r>    -4.9765     0.0000    18.0000 </r>
       <r>    -4.8615     0.0000    18.0000 </r>
       <r>    -4.7465     0.0000    18.0000 </r>
       <r>    -4.6315     0.0000    18.0000 </r>
       <r>    -4.5166     0.0000    18.0000 </r>
       <r>    -4.4016     0.0000    18.0000 </r>
       <r>    -4.2866     0.0000    18.0000 </r>
       <r>    -4.1716     0.0000    18.0000 </r>
       <r>    -4.0567     0.0000    18.0000 </r>
       <r>    -3.9417     0.0000    18.0000 </r>
       <r>    -3.8267     0.0000    18.0000 </r>
       <r>    -3.7117     0.0000    18.0000 </r>
       <r>    -3.5968     0.0000    18.0000 </r>
       <r>    -3.4818     0.0000    18.0000 </r>
       <r>    -3.3668     0.0000    18.0000 </r>
       <r>    -3.2518     0.0000    18.0000 </r>
       <r>    -3.1369     0.0000    18.0000 </r>
       <r>    -3.0219     0.0000    18.0000 </r>
       <r>    -2.9069     0.0000    18.0000 </r>
       <r>    -2.7919     0.0000    18.0000 </r>
       <r>    -2.6770     0.0000    18.0000 </r>
       <r>    -2.5620     0.0000    18.0000 </r>
       <r>    -2.4470     0.0000    18.0000 </r>
       <r>    -2.3320     0.0000    18.0000 </r>
       <r>    -2.2171     0.0005    18.0001 </r>
       <r>    -2.1021     0.0110    18.0013 </r>
       <r>    -1.9871     0.1311    18.0164 </r>
       <r>    -1.8721     0.8329    18.1121 </r>
       <r>    -1.7572     2.8266    18.4371 </r>
       <r>    -1.6422     5.1358    19.0276 </r>
       <r>    -1.5272     5.0141    19.6041 </r>
       <r>    -1.4122     2.7407    19.9192 </r>
       <r>    -1.2973     1.4026    20.0805 </r>
       <r>    -1.1823     1.9642    20.3063 </r>
       <r>    -1.0673     2.7416    20.6215 </r>
       <r>    -0.9523     2.1550    20.8693 </r>
       <r>    -0.8374     0.9239    20.9755 </r>
       <r>    -0.7224     0.3554    21.0164 </r>
       <r>    -0.6074     0.7690    21.1048 </r>
       <r>    -0.4924     1.9565    21.3297 </r>
       <r>    -0.3775     2.7476    21.6456 </r>
       <r>    -0.2625     2.1107    21.8883 </r>
       <r>    -0.1475     1.1786    22.0238 </r>
       <r>    -0.0325     1.5288    22.1996 </r>
       <r>     0.0824     3.1465    22.5614 </r>
       <r>     0.1974     5.2839    23.1689 </r>
       <r>     0.3124     7.7438    24.0592 </r>
       <r>     0.4274     9.2374    25.1213 </r>
       <r>     0.5423     8.5001    26.0986 </r>
       <r>     0.6573     7.4470    26.9548 </r>
       <r>     0.7723     8.2011    27.8977 </r>
       <r>     0.8873     9.6200    29.0038 </r>
       <r>     1.0022     9.9204    30.1444 </r>
       <r>     1.1172     9.7701    31.2677 </r>
       <r>     1.2322     8.3403    32.2266 </r>
       <r>     1.3472     4.7784    32.7760 </r>
       <r>     1.4621     1.6089    32.9610 </r>
       <r>     1.5771     0.3051    32.9961 </r>
       <r>     1.6921     0.0321    32.9998 </r>
       <r>     1.8071     0.0018    33.0000 </r>
       <r>     1.9220     0.0001    33.0000 </r>
       <r>     2.0370     0.0000    33.0000 </r>
       <r>     2.1520     0.0000    33.0000 </r>
       <r>     2.2670     0.0000    33.0000 </r>
       <r>     2.3819     0.0000    33.0000 </r>
       <r>     2.4969     0.0000    33.0000 </r>
       <r>     2.6119     0.0000    33.0000 </r>
       <r>     2.7269     0.0000    33.0000 </r>
       <r>     2.8418     0.0000    33.0000 </r>
       <r>     2.9568     0.0000    33.0000 </r>
       <r>     3.0718     0.0000    33.0000 </r>
       <r>     3.1868     0.0000    33.0000 </r>
      </set>
     </set>
    </array>
   </total>
   <partial>
    <array>
     <dimension dim="1">gridpoints</dimension>
     <dimension dim="2">spin</dimension>
     <dimension dim="3">ion</dimension>
     <field>energy</field>
     <field>    s</field>
     <field>   py</field>
     <field>   pz</field>
     <field>   px</field>
     <field>  dxy</field>
     <field>  dyz</field>
     <field>  dz2</field>
     <field>  dxz</field>
     <field>x2-y2</field>
     <set>
      <set comment="ion 1">
       <set comment="spin 1">
        <r>   -31.3057     0.0000     0.0000     0.0000     0.0000     0.0000     0.0000     0.0000     0.0000     0.0000 </r>
        <r>   -31.1907     0.0000     0.0000     0.0000     0.0000     0.0000     0.0000     0.0000     0.0000     0.0000 </r>
        <r>   -31.0757     0.0000     0.0000     0.0000     0.0000     0.0000     0.0000     0.0000     0.0000     0.0000 </r>
        <r>   -30.9607     0.0000     0.0000     0.0000     0.0000     0.0000     0.0000     0.0000     0.0000     0.0000 </r>
        <r>   -30.8458     0.0000     0.0000     0.0000     0.0000     0.0000     0.0000     0.0000     0.0000     0.0000 </r>
        <r>   -30.7308     0.0000     0.0000     0.0000     0.0000     0.0000     0.0000     0.0000     0.0000     0.0000 </r>
        <r>   -30.6158     0.0000     0.0000     0.0000     0.0000     0.0000     0.0000     0.0000     0.0000     0.0000 </r>
        <r>   -30.5009     0.0000     0.0000     0.0000     0.0000     0.0000     0.0000     0.0000     0.0000     0.0000 </r>
        <r>   -30.3859     0.0000     0.0000     0.0000     0.0000     0.0000     0.0000     0.0000     0.0000     0.0000 </r>
        <r>   -30.2709     0.0000     0.0000     0.0000     0.0000     0.0000     0.0000     0.0000     0.0000     0.0000 </r>
        <r>   -30.1559     0.0000     0.0000     0.0000     0.0000     0.0000     0.0000     0.0000     0.0000     0.0000 </r>
        <r>   -30.0410     0.0000     0.0000     0.0000     0.0000     0.0000     0.0000     0.0000     0.0000     0.0000 </r>
        <r>   -29.9260     0.0000     0.0000     0.0000     0.0000     0.0000     0.0000     0.0000     0.0000     0.0000 </r>
        <r>   -29.8110     0.0000     0.0000     0.0000     0.0000     0.0000     0.0000     0.0000     0.0000     0.0000 </r>
        <r>   -29.6960     0.0000     0.0000     0.0000     0.0000     0.0000     0.0000     0.0000     0.0000     0.0000 </r>
        <r>   -29.5811     0.0000     0.0000     0.0000     0.0000     0.0000     0.0000     0.0000     0.0000     0.0000 </r>
        <r>   -29.4661     0.0001     0.0000     0.0000     0.0000     0.0000     0.0000     0.0000     0.0000     0.0000 </r>
        <r>   -29.3511     0.0002     0.0000     0.0000     0.0000     0.0000     0.0000     0.0000     0.0000     0.0000 </r>
        <r>   -29.2361     0.0002     0.0000     0.0000     0.0000     0.0000     0.0000     0.0000     0.0000     0.0000 </r>
        <r>   -29.1212     0.0001     0.0000     0.0000     0.0000     0.0000     0.0000     0.0000     0.0000     0.0000 </r>
        <r>   -29.0062     0.0000     0.0000     0.0000     0.0000     0.0000     0.0000     0.0000     0.0000     0.0000 </r>
        <r>   -28.8912     0.0000     0.0000     0.0000     0.0000     0.0000     0.0000     0.0000     0.0000     0.0000 </r>
        <r>   -28.7762     0.0000     0.0000     0.0000     0.0000     0.0000     0.0000     0.0000     0.0000     0.0000 </r>
        <r>   -28.6613     0.0000     0.0000     0.0000     0.0000     0.0000     0.0000     0.0000     0.0000     0.0000 </r>
        <r>   -28.5463     0.0000     0.0000     0.0000     0.0000     0.0000     0.0000     0.0000     0.0000     0.0000 </r>
        <r>   -28.4313     0.0000     0.0000     0.0000     0.0000     0.0000     0.0000     0.0000     0.0000     0.0000 </r>
        <r>   -28.3163     0.0000     0.0000     0.0000     0.0000     0.0000     0.0000     0.0000     0.0000     0.0000 </r>
        <r>   -28.2014     0.0000     0.0000     0.0000     0.0000     0.0000     0.0000     0.0000     0.0000     0.0000 </r>
        <r>   -28.0864     0.0000     0.0000     0.0000     0.0000     0.0000     0.0000     0.0000     0.0000     0.0000 </r>
        <r>   -27.9714     0.0000     0.0000     0.0000     0.0000     0.0000     0.0000     0.0000     0.0000     0.0000 </r>
        <r>   -27.8564     0.0000     0.0000     0.0000     0.0000     0.0000     0.0000     0.0000     0.0000     0.0000 </r>
        <r>   -27.7415     0.0000     0.0000     0.0000     0.0000     0.0000     0.0000     0.0000     0.0000     0.0000 </r>
        <r>   -27.6265     0.0000     0.0000     0.0000     0.0000     0.0000     0.0000     0.0000     0.0000     0.0000 </r>
        <r>   -27.5115     0.0000     0.0000     0.0000     0.0000     0.0000     0.0000     0.0000     0.0000     0.0000 </r>
        <r>   -27.3965     0.0000     0.0000     0.0000     0.0000     0.0000     0.0000     0.0000     0.0000     0.0000 </r>
        <r>   -27.2816     0.0000     0.0000     0.0000     0.0000     0.0000     0.0000     0.0000     0.0000     0.0000 </r>
        <r>   -27.1666     0.0000     0.0000     0.0000     0.0000     0.0000     0.0000     0.0000     0.0000     0.0000 </r>
        <r>   -27.0516     0.0000     0.0000     0.0000     0.0000     0.0000     0.0000     0.0000     0.0000     0.0000 </r>
        <r>   -26.9366     0.0000     0.0000     0.0000     0.0000     0.0000     0.0000     0.0000     0.0000     0.0000 </r>
        <r>   -26.8217     0.0000     0.0000     0.0000     0.0000     0.0000     0.0000     0.0000     0.0000     0.0000 </r>
        <r>   -26.7067     0.0000     0.0000     0.0000     0.0000     0.0000     0.0000     0.0000     0.0000     0.0000 </r>
        <r>   -26.5917     0.0000     0.0000     0.0000     0.0000     0.0000     0.0000     0.0000     0.0000     0.0000 </r>
        <r>   -26.4767     0.0000     0.0000     0.0000     0.0000     0.0000     0.0000     0.0000     0.0000     0.0000 </r>
        <r>   -26.3618     0.0000     0.0000     0.0000     0.0000     0.0000     0.0000     0.0000     0.0000     0.0000 </r>
        <r>   -26.2468     0.0000     0.0000     0.0000     0.0000     0.0000     0.0000     0.0000     0.0000     0.0000 </r>
        <r>   -26.1318     0.0000     0.0000     0.0000     0.0000     0.0000     0.0000     0.0000     0.0000     0.0000 </r>
        <r>   -26.0168     0.0000     0.0000     0.0000     0.0000     0.0000     0.0000     0.0000     0.0000     0.0000 </r>
        <r>   -25.9019     0.0000     0.0000     0.0000     0.0000     0.0000     0.0000     0.0000     0.0000     0.0000 </r>
        <r>   -25.7869     0.0000     0.0000     0.0000     0.0000     0.0000     0.0000     0.0000     0.0000     0.0000 </r>
        <r>   -25.6719     0.0000     0.0000     0.0000     0.0000     0.0000     0.0000     0.0000     0.0000     0.0000 </r>
        <r>   -25.5569     0.0000     0.0000     0.0000     0.0000     0.0000     0.0000     0.0000     0.0000     0.0000 </r>
        <r>   -25.4420     0.0000     0.0000     0.0000     0.0000     0.0000     0.0000     0.0000     0.0000     0.0000 </r>
        <r>   -25.3270     0.0000     0.0000     0.0000     0.0000     0.0000     0.0000     0.0000     0.0000     0.0000 </r>
        <r>   -25.2120     0.0000     0.0000     0.0000     0.0000     0.0000     0.0000     0.0000     0.0000     0.0000 </r>
        <r>   -25.0970     0.0000     0.0000     0.0000     0.0000     0.0000     0.0000     0.0000     0.0000     0.0000 </r>
        <r>   -24.9821     0.0000     0.0000     0.0000     0.0000     0.0000     0.0000     0.0000     0.0000     0.0000 </r>
        <r>   -24.8671     0.0000     0.0000     0.0000     0.0000     0.0000     0.0000     0.0000     0.0000     0.0000 </r>
        <r>   -24.7521     0.0000     0.0000     0.0000     0.0000     0.0000     0.0000     0.0000     0.0000     0.0000 </r>
        <r>   -24.6371     0.0000     0.0000     0.0000     0.0000     0.0000     0.0000     0.0000     0.0000     0.0000 </r>
        <r>   -24.5222     0.0000     0.0000     0.0000     0.0000     0.0000     0.0000     0.0000     0.0000     0.0000 </r>
        <r>   -24.4072     0.0000     0.0000     0.0000     0.0000     0.0000     0.0000     0.0000     0.0000     0.0000 </r>
        <r>   -24.2922     0.0000     0.0000     0.0000     0.0000     0.0000     0.0000     0.0000     0.0000     0.0000 </r>
        <r>   -24.1772     0.0000     0.0000     0.0000     0.0000     0.0000     0.0000     0.0000     0.0000     0.0000 </r>
        <r>   -24.0623     0.0000     0.0000     0.0000     0.0000     0.0000     0.0000     0.0000     0.0000     0.0000 </r>
        <r>   -23.9473     0.0000     0.0000     0.0000     0.0000     0.0000     0.0000     0.0000     0.0000     0.0000 </r>
        <r>   -23.8323     0.0000     0.0000     0.0000     0.0000     0.0000     0.0000     0.0000     0.0000     0.0000 </r>
        <r>   -23.7173     0.0000     0.0000     0.0000     0.0000     0.0000     0.0000     0.0000     0.0000     0.0000 </r>
        <r>   -23.6024     0.0000     0.0000     0.0000     0.0000     0.0000     0.0000     0.0000     0.0000     0.0000 </r>
        <r>   -23.4874     0.0000     0.0000     0.0000     0.0000     0.0000     0.0000     0.0000     0.0000     0.0000 </r>
        <r>   -23.3724     0.0000     0.0000     0.0000     0.0000     0.0000     0.0000     0.0000     0.0000     0.0000 </r>
        <r>   -23.2574     0.0000     0.0000     0.0000     0.0000     0.0000     0.0000     0.0000     0.0000     0.0000 </r>
        <r>   -23.1425     0.0000     0.0000     0.0000     0.0000     0.0000     0.0000     0.0000     0.0000     0.0000 </r>
        <r>   -23.0275     0.0000     0.0000     0.0000     0.0000     0.0000     0.0000     0.0000     0.0000     0.0000 </r>
        <r>   -22.9125     0.0000     0.0000     0.0000     0.0000     0.0000     0.0000     0.0000     0.0000     0.0000 </r>
        <r>   -22.7975     0.0000     0.0000     0.0000     0.0000     0.0000     0.0000     0.0000     0.0000     0.0000 </r>
        <r>   -22.6826     0.0000     0.0000     0.0000     0.0000     0.0000     0.0000     0.0000     0.0000     0.0000 </r>
        <r>   -22.5676     0.0000     0.0000     0.0000     0.0000     0.0000     0.0000     0.0000     0.0000     0.0000 </r>
        <r>   -22.4526     0.0000     0.0000     0.0000     0.0000     0.0000     0.0000     0.0000     0.0000     0.0000 </r>
        <r>   -22.3376     0.0000     0.0000     0.0000     0.0000     0.0000     0.0000     0.0000     0.0000     0.0000 </r>
        <r>   -22.2227     0.0000     0.0000     0.0000     0.0000     0.0000     0.0000     0.0000     0.0000     0.0000 </r>
        <r>   -22.1077     0.0000     0.0000     0.0000     0.0000     0.0000     0.0000     0.0000     0.0000     0.0000 </r>
        <r>   -21.9927     0.0003     0.0000     0.0000     0.0000     0.0000     0.0000     0.0000     0.0000     0.0000 </r>
        <r>   -21.8777     0.0018     0.0002     0.0000     0.0001     0.0000     0.0000     0.0000     0.0000     0.0000 </r>
        <r>   -21.7628     0.0063     0.0006     0.0000     0.0002     0.0000     0.0000     0.0000     0.0000     0.0000 </r>
        <r>   -21.6478     0.0116     0.0010     0.0000     0.0004     0.0000     0.0000     0.0000     0.0000     0.0000 </r>
        <r>   -21.5328     0.0114     0.0010     0.0000     0.0003     0.0000     0.0000     0.0000     0.0000     0.0000 </r>
        <r>   -21.4178     0.0060     0.0005     0.0000     0.0002     0.0000     0.0000     0.0000     0.0000     0.0000 </r>
        <r>   -21.3029     0.0017     0.0001     0.0000     0.0001     0.0000     0.0000     0.0000     0.0000     0.0000 </r>
        <r>   -21.1879     0.0003     0.0000     0.0000     0.0000     0.0000     0.0000     0.0000     0.0000     0.0000 </r>
        <r>   -21.0729     0.0000     0.0000     0.0000     0.0000     0.0000     0.0000     0.0000     0.0000     0.0000 </r>
        <r>   -20.9579     0.0000     0.0000     0.0000     0.0000     0.0000     0.0000     0.0000     0.0000     0.0000 </r>
        <r>   -20.8430     0.0000     0.0000     0.0000     0.0000     0.0000     0.0000     0.0000     0.0000     0.0000 </r>
        <r>   -20.7280     0.0000     0.0000     0.0000     0.0000     0.0000     0.0000     0.0000     0.0000     0.0000 </r>
        <r>   -20.6130     0.0000     0.0000     0.0000     0.0000     0.0000     0.0000     0.0000     0.0000     0.0000 </r>
        <r>   -20.4980     0.0000     0.0000     0.0000     0.0000     0.0000     0.0000     0.0000     0.0000     0.0000 </r>
        <r>   -20.3831     0.0000     0.0000     0.0000     0.0000     0.0000     0.0000     0.0000     0.0000     0.0000 </r>
        <r>   -20.2681     0.0000     0.0000     0.0000     0.0000     0.0000     0.0000     0.0000     0.0000     0.0000 </r>
        <r>   -20.1531     0.0000     0.0000     0.0000     0.0000     0.0000     0.0000     0.0000     0.0000     0.0000 </r>
        <r>   -20.0381     0.0000     0.0000     0.0000     0.0000     0.0000     0.0000     0.0000     0.0000     0.0000 </r>
        <r>   -19.9232     0.0000     0.0000     0.0000     0.0000     0.0000     0.0000     0.0000     0.0000     0.0000 </r>
        <r>   -19.8082     0.0000     0.0000     0.0000     0.0000     0.0000     0.0000     0.0000     0.0000     0.0000 </r>
        <r>   -19.6932     0.0000     0.0000     0.0000     0.0000     0.0000     0.0000     0.0000     0.0000     0.0000 </r>
        <r>   -19.5782     0.0000     0.0000     0.0000     0.0000     0.0000     0.0000     0.0000     0.0000     0.0000 </r>
        <r>   -19.4633     0.0000     0.0000     0.0000     0.0000     0.0000     0.0000     0.0000     0.0000     0.0000 </r>
        <r>   -19.3483     0.0002     0.0000     0.0000     0.0000     0.0000     0.0000     0.0000     0.0000     0.0000 </r>
        <r>   -19.2333     0.0023     0.0002     0.0000     0.0001     0.0000     0.0000     0.0000     0.0000     0.0000 </r>
        <r>   -19.1183     0.0124     0.0010     0.0000     0.0003     0.0000     0.0000     0.0000     0.0000     0.0000 </r>
        <r>   -19.0034     0.0359     0.0028     0.0000     0.0010     0.0000     0.0000     0.0000     0.0000     0.0000 </r>
        <r>   -18.8884     0.0570     0.0043     0.0000     0.0016     0.0000     0.0000     0.0000     0.0000     0.0000 </r>
        <r>   -18.7734     0.0493     0.0036     0.0000     0.0015     0.0000     0.0000     0.0000     0.0000     0.0000 </r>
        <r>   -18.6584     0.0231     0.0017     0.0000     0.0007     0.0000     0.0000     0.0000     0.0000     0.0000 </r>
        <r>   -18.5435     0.0058     0.0004     0.0000     0.0002     0.0000     0.0000     0.0000     0.0000     0.0000 </r>
        <r>   -18.4285     0.0008     0.0001     0.0000     0.0000     0.0000     0.0000     0.0000     0.0000     0.0000 </r>
        <r>   -18.3135     0.0001     0.0000     0.0000     0.0000     0.0000     0.0000     0.0000     0.0000     0.0000 </r>
        <r>   -18.1986     0.0000     0.0000     0.0000     0.0000     0.0000     0.0000     0.0000     0.0000     0.0000 </r>
        <r>   -18.0836     0.0000     0.0000     0.0000     0.0000     0.0000     0.0000     0.0000     0.0000     0.0000 </r>
        <r>   -17.9686     0.0000     0.0000     0.0000     0.0000     0.0000     0.0000     0.0000     0.0000     0.0000 </r>
        <r>   -17.8536     0.0000     0.0000     0.0000     0.0000     0.0000     0.0000     0.0000     0.0000     0.0000 </r>
        <r>   -17.7387     0.0000     0.0000     0.0000     0.0000     0.0000     0.0000     0.0000     0.0000     0.0000 </r>
        <r>   -17.6237     0.0000     0.0000     0.0000     0.0000     0.0000     0.0000     0.0000     0.0000     0.0000 </r>
        <r>   -17.5087     0.0000     0.0000     0.0000     0.0000     0.0000     0.0000     0.0000     0.0000     0.0000 </r>
        <r>   -17.3937     0.0000     0.0000     0.0000     0.0000     0.0000     0.0000     0.0000     0.0000     0.0000 </r>
        <r>   -17.2788     0.0000     0.0000     0.0000     0.0000     0.0000     0.0000     0.0000     0.0000     0.0000 </r>
        <r>   -17.1638     0.0000     0.0000     0.0000     0.0000     0.0000     0.0000     0.0000     0.0000     0.0000 </r>
        <r>   -17.0488     0.0000     0.0000     0.0000     0.0000     0.0000     0.0000     0.0000     0.0000     0.0000 </r>
        <r>   -16.9338     0.0000     0.0000     0.0000     0.0000     0.0000     0.0000     0.0000     0.0000     0.0000 </r>
        <r>   -16.8189     0.0000     0.0000     0.0000     0.0000     0.0000     0.0000     0.0000     0.0000     0.0000 </r>
        <r>   -16.7039     0.0000     0.0000     0.0000     0.0000     0.0000     0.0000     0.0000     0.0000     0.0000 </r>
        <r>   -16.5889     0.0000     0.0000     0.0000     0.0000     0.0000     0.0000     0.0000     0.0000     0.0000 </r>
        <r>   -16.4739     0.0001     0.0000     0.0000     0.0000     0.0000     0.0000     0.0000     0.0000     0.0000 </r>
        <r>   -16.3590     0.0010     0.0000     0.0000     0.0001     0.0000     0.0000     0.0000     0.0000     0.0000 </r>
        <r>   -16.2440     0.0054     0.0002     0.0000     0.0003     0.0000     0.0000     0.0000     0.0000     0.0000 </r>
        <r>   -16.1290     0.0154     0.0006     0.0000     0.0008     0.0000     0.0000     0.0000     0.0000     0.0000 </r>
        <r>   -16.0140     0.0236     0.0009     0.0000     0.0013     0.0000     0.0000     0.0000     0.0000     0.0000 </r>
        <r>   -15.8991     0.0200     0.0008     0.0000     0.0010     0.0000     0.0000     0.0000     0.0000     0.0000 </r>
        <r>   -15.7841     0.0135     0.0008     0.0000     0.0005     0.0000     0.0000     0.0000     0.0000     0.0000 </r>
        <r>   -15.6691     0.0239     0.0019     0.0000     0.0002     0.0000     0.0000     0.0000     0.0000     0.0000 </r>
        <r>   -15.5541     0.0510     0.0042     0.0000     0.0002     0.0000     0.0000     0.0000     0.0000     0.0000 </r>
        <r>   -15.4392     0.0631     0.0052     0.0000     0.0003     0.0000     0.0000     0.0000     0.0000     0.0000 </r>
        <r>   -15.3242     0.0419     0.0035     0.0000     0.0002     0.0000     0.0000     0.0000     0.0000     0.0000 </r>
        <r>   -15.2092     0.0149     0.0012     0.0000     0.0001     0.0000     0.0000     0.0000     0.0000     0.0000 </r>
        <r>   -15.0942     0.0028     0.0002     0.0000     0.0000     0.0000     0.0000     0.0000     0.0000     0.0000 </r>
        <r>   -14.9793     0.0003     0.0000     0.0000     0.0000     0.0000     0.0000     0.0000     0.0000     0.0000 </r>
        <r>   -14.8643     0.0000     0.0000     0.0000     0.0000     0.0000     0.0000     0.0000     0.0000     0.0000 </r>
        <r>   -14.7493     0.0000     0.0000     0.0000     0.0000     0.0000     0.0000     0.0000     0.0000     0.0000 </r>
        <r>   -14.6343     0.0000     0.0000     0.0000     0.0000     0.0000     0.0000     0.0000     0.0000     0.0000 </r>
        <r>   -14.5194     0.0000     0.0000     0.0000     0.0000     0.0000     0.0000     0.0000     0.0000     0.0000 </r>
        <r>   -14.4044     0.0006     0.0000     0.0000     0.0000     0.0000     0.0000     0.0000     0.0000     0.0000 </r>
        <r>   -14.2894     0.0047     0.0001     0.0000     0.0002     0.0000     0.0000     0.0000     0.0000     0.0000 </r>
        <r>   -14.1744     0.0197     0.0006     0.0000     0.0009     0.0000     0.0000     0.0000     0.0000     0.0000 </r>
        <r>   -14.0595     0.0439     0.0012     0.0000     0.0020     0.0000     0.0000     0.0000     0.0000     0.0000 </r>
        <r>   -13.9445     0.0521     0.0015     0.0000     0.0024     0.0000     0.0000     0.0000     0.0000     0.0000 </r>
        <r>   -13.8295     0.0331     0.0009     0.0000     0.0015     0.0000     0.0000     0.0000     0.0000     0.0000 </r>
        <r>   -13.7145     0.0113     0.0003     0.0000     0.0005     0.0000     0.0000     0.0000     0.0000     0.0000 </r>
        <r>   -13.5996     0.0020     0.0001     0.0000     0.0001     0.0000     0.0000     0.0000     0.0000     0.0000 </r>
        <r>   -13.4846     0.0002     0.0000     0.0000     0.0000     0.0000     0.0000     0.0000     0.0000     0.0000 </r>
        <r>   -13.3696     0.0000     0.0000     0.0000     0.0000     0.0000     0.0000     0.0000     0.0000     0.0000 </r>
[...]
        <r>  0.0000  0.0000  0.0039  0.0000  0.0000  0.0000  0.0000  0.0000  0.0000 </r>
        <r>  0.0002  0.0001  0.0000  0.0000  0.0000  0.0000  0.0000  0.0000  0.0000 </r>
        <r>  0.0001  0.0001  0.0000  0.0000  0.0000  0.0000  0.0000  0.0000  0.0000 </r>
        <r>  0.0000  0.0000  0.0050  0.0000  0.0000  0.0000  0.0000  0.0000  0.0000 </r>
        <r>  0.0000  0.0000  0.0804  0.0000  0.0000  0.0000  0.0000  0.0000  0.0000 </r>
        <r>  0.0000  0.0000  0.1328  0.0000  0.0000  0.0000  0.0000  0.0000  0.0000 </r>
        <r>  0.0000  0.0000  0.0044  0.0000  0.0000  0.0000  0.0000  0.0000  0.0000 </r>
        <r>  0.0000  0.0000  0.0910  0.0000  0.0000  0.0000  0.0000  0.0000  0.0000 </r>
        <r>  0.0000  0.0000  0.1256  0.0000  0.0000  0.0000  0.0000  0.0000  0.0000 </r>
        <r>  0.0000  0.0000  0.0001  0.0000  0.0000  0.0000  0.0000  0.0000  0.0000 </r>
       </set>
       <set comment="band 21">
        <r>  0.0019  0.0002  0.0000  0.0002  0.0000  0.0000  0.0000  0.0000  0.0000 </r>
        <r>  0.0003  0.0000  0.0000  0.0000  0.0000  0.0000  0.0000  0.0000  0.0000 </r>
        <r>  0.0001  0.0000  0.0000  0.0000  0.0000  0.0000  0.0000  0.0000  0.0000 </r>
        <r>  0.0003  0.0000  0.0000  0.0000  0.0000  0.0000  0.0000  0.0000  0.0000 </r>
        <r>  0.0018  0.0002  0.0000  0.0002  0.0000  0.0000  0.0000  0.0000  0.0000 </r>
        <r>  0.0305  0.0000  0.0090  0.0005  0.0000  0.0000  0.0000  0.0000  0.0000 </r>
        <r>  0.0267  0.0000  0.0090  0.0000  0.0000  0.0000  0.0000  0.0000  0.0000 </r>
        <r>  0.0005  0.0000  0.0007  0.0109  0.0000  0.0000  0.0000  0.0000  0.0000 </r>
        <r>  0.0037  0.0000  0.0003  0.0018  0.0000  0.0000  0.0000  0.0000  0.0000 </r>
        <r>  0.0002  0.0000  0.0001  0.0015  0.0000  0.0000  0.0000  0.0000  0.0000 </r>
        <r>  0.0001  0.0000  0.0008  0.0000  0.0000  0.0000  0.0000  0.0000  0.0000 </r>
        <r>  0.0002  0.0000  0.0005  0.0015  0.0000  0.0000  0.0000  0.0000  0.0000 </r>
        <r>  0.0036  0.0001  0.0000  0.0018  0.0000  0.0000  0.0000  0.0000  0.0000 </r>
        <r>  0.0667  0.0002  0.0000  0.0058  0.0000  0.0000  0.0000  0.0000  0.0000 </r>
       </set>
       <set comment="band 22">
        <r>  0.0020  0.0009  0.0000  0.0001  0.0000  0.0000  0.0000  0.0000  0.0000 </r>
        <r>  0.0010  0.0019  0.0000  0.0007  0.0000  0.0000  0.0000  0.0000  0.0000 </r>
        <r>  0.0005  0.0000  0.0000  0.0025  0.0000  0.0000  0.0000  0.0000  0.0000 </r>
        <r>  0.0010  0.0019  0.0000  0.0007  0.0000  0.0000  0.0000  0.0000  0.0000 </r>
        <r>  0.0020  0.0009  0.0000  0.0001  0.0000  0.0000  0.0000  0.0000  0.0000 </r>
        <r>  0.0020  0.0000  0.0003  0.0002  0.0000  0.0000  0.0000  0.0000  0.0000 </r>
        <r>  0.0016  0.0000  0.0003  0.0001  0.0000  0.0000  0.0000  0.0000  0.0000 </r>
        <r>  0.0024  0.0000  0.0001  0.0047  0.0000  0.0000  0.0000  0.0000  0.0000 </r>
        <r>  0.0020  0.0024  0.0000  0.0003  0.0000  0.0000  0.0000  0.0000  0.0000 </r>
        <r>  0.0069  0.0056  0.0000  0.0010  0.0000  0.0000  0.0000  0.0000  0.0000 </r>
        <r>  0.0047  0.0000  0.0000  0.0084  0.0000  0.0000  0.0000  0.0000  0.0000 </r>
        <r>  0.0070  0.0057  0.0000  0.0010  0.0000  0.0000  0.0000  0.0000  0.0000 </r>
        <r>  0.0020  0.0026  0.0000  0.0003  0.0000  0.0000  0.0000  0.0000  0.0000 </r>
        <r>  0.0065  0.0000  0.0000  0.0021  0.0000  0.0000  0.0000  0.0000  0.0000 </r>
       </set>
       <set comment="band 23">
        <r>  0.0000  0.0017  0.0000  0.0005  0.0000  0.0000  0.0000  0.0000  0.0000 </r>
        <r>  0.0000  0.0019  0.0000  0.0006  0.0000  0.0000  0.0000  0.0000  0.0000 </r>
        <r>  0.0000  0.0000  0.0000  0.0000  0.0000  0.0000  0.0000  0.0000  0.0000 </r>
        <r>  0.0000  0.0018  0.0000  0.0005  0.0000  0.0000  0.0000  0.0000  0.0000 </r>
        <r>  0.0000  0.0017  0.0000  0.0005  0.0000  0.0000  0.0000  0.0000  0.0000 </r>
        <r>  0.0000  0.0000  0.0000  0.0000  0.0000  0.0000  0.0000  0.0000  0.0000 </r>
        <r>  0.0000  0.0000  0.0000  0.0000  0.0000  0.0000  0.0000  0.0000  0.0000 </r>
        <r>  0.0000  0.0000  0.0000  0.0000  0.0000  0.0000  0.0000  0.0000  0.0000 </r>
        <r>  0.0014  0.0090  0.0000  0.0021  0.0000  0.0000  0.0000  0.0000  0.0000 </r>
        <r>  0.0025  0.0079  0.0000  0.0022  0.0000  0.0000  0.0000  0.0000  0.0000 </r>
        <r>  0.0000  0.0000  0.0000  0.0000  0.0000  0.0000  0.0000  0.0000  0.0000 </r>
        <r>  0.0024  0.0077  0.0000  0.0022  0.0000  0.0000  0.0000  0.0000  0.0000 </r>
        <r>  0.0015  0.0087  0.0000  0.0021  0.0000  0.0000  0.0000  0.0000  0.0000 </r>
        <r>  0.0000  0.0013  0.0000  0.0000  0.0000  0.0000  0.0000  0.0000  0.0000 </r>
       </set>
       <set comment="band 24">
        <r>  0.0002  0.0015  0.0000  0.0001  0.0000  0.0000  0.0000  0.0000  0.0000 </r>
        <r>  0.0001  0.0000  0.0000  0.0001  0.0000  0.0000  0.0000  0.0000  0.0000 </r>
        <r>  0.0003  0.0000  0.0000  0.0032  0.0000  0.0000  0.0000  0.0000  0.0000 </r>
        <r>  0.0001  0.0000  0.0000  0.0001  0.0000  0.0000  0.0000  0.0000  0.0000 </r>
        <r>  0.0002  0.0015  0.0000  0.0001  0.0000  0.0000  0.0000  0.0000  0.0000 </r>
        <r>  0.0006  0.0000  0.0001  0.0001  0.0000  0.0000  0.0000  0.0000  0.0000 </r>
        <r>  0.0004  0.0000  0.0000  0.0000  0.0000  0.0000  0.0000  0.0000  0.0000 </r>
        <r>  0.0001  0.0000  0.0000  0.0056  0.0000  0.0000  0.0000  0.0000  0.0000 </r>
        <r>  0.0020  0.0030  0.0000  0.0021  0.0000  0.0000  0.0000  0.0000  0.0000 </r>
        <r>  0.0002  0.0003  0.0000  0.0000  0.0000  0.0000  0.0000  0.0000  0.0000 </r>
        <r>  0.0055  0.0000  0.0000  0.0097  0.0000  0.0000  0.0000  0.0000  0.0000 </r>
        <r>  0.0002  0.0003  0.0000  0.0000  0.0000  0.0000  0.0000  0.0000  0.0000 </r>
        <r>  0.0020  0.0030  0.0000  0.0020  0.0000  0.0000  0.0000  0.0000  0.0000 </r>
        <r>  0.0017  0.0000  0.0001  0.0010  0.0000  0.0000  0.0000  0.0000  0.0000 </r>
       </set>
       <set comment="band 25">
        <r>  0.0000  0.0000  0.0001  0.0000  0.0000  0.0000  0.0000  0.0000  0.0000 </r>
        <r>  0.0000  0.0000  0.0000  0.0000  0.0000  0.0000  0.0000  0.0000  0.0000 </r>
        <r>  0.0000  0.0000  0.0004  0.0000  0.0000  0.0000  0.0000  0.0000  0.0000 </r>
        <r>  0.0000  0.0000  0.0000  0.0000  0.0000  0.0000  0.0000  0.0000  0.0000 </r>
        <r>  0.0000  0.0000  0.0001  0.0000  0.0000  0.0000  0.0000  0.0000  0.0000 </r>
        <r>  0.0009  0.0000  0.0029  0.0008  0.0000  0.0000  0.0000  0.0000  0.0000 </r>
        <r>  0.0012  0.0000  0.0036  0.0005  0.0000  0.0000  0.0000  0.0000  0.0000 </r>
        <r>  0.0000  0.0000  0.0016  0.0000  0.0000  0.0000  0.0000  0.0000  0.0000 </r>
        <r>  0.0000  0.0000  0.0015  0.0000  0.0000  0.0000  0.0000  0.0000  0.0000 </r>
        <r>  0.0000  0.0000  0.0088  0.0000  0.0000  0.0000  0.0000  0.0000  0.0000 </r>
        <r>  0.0000  0.0000  0.0010  0.0000  0.0000  0.0000  0.0000  0.0000  0.0000 </r>
        <r>  0.0000  0.0000  0.0093  0.0000  0.0000  0.0000  0.0000  0.0000  0.0000 </r>
        <r>  0.0000  0.0000  0.0011  0.0000  0.0000  0.0000  0.0000  0.0000  0.0000 </r>
        <r>  0.0000  0.0000  0.0222  0.0000  0.0000  0.0000  0.0000  0.0000  0.0000 </r>
       </set>
       <set comment="band 26">
        <r>  0.0005  0.0004  0.0000  0.0001  0.0000  0.0000  0.0000  0.0000  0.0000 </r>
        <r>  0.0005  0.0005  0.0000  0.0001  0.0000  0.0000  0.0000  0.0000  0.0000 </r>
        <r>  0.0005  0.0000  0.0000  0.0005  0.0000  0.0000  0.0000  0.0000  0.0000 </r>
        <r>  0.0005  0.0005  0.0000  0.0001  0.0000  0.0000  0.0000  0.0000  0.0000 </r>
        <r>  0.0005  0.0004  0.0000  0.0001  0.0000  0.0000  0.0000  0.0000  0.0000 </r>
        <r>  0.0003  0.0000  0.0002  0.0000  0.0000  0.0000  0.0000  0.0000  0.0000 </r>
        <r>  0.0003  0.0000  0.0001  0.0001  0.0000  0.0000  0.0000  0.0000  0.0000 </r>
        <r>  0.0006  0.0000  0.0000  0.0009  0.0000  0.0000  0.0000  0.0000  0.0000 </r>
        <r>  0.0014  0.0008  0.0000  0.0004  0.0000  0.0000  0.0000  0.0000  0.0000 </r>
        <r>  0.0014  0.0011  0.0000  0.0004  0.0000  0.0000  0.0000  0.0000  0.0000 </r>
        <r>  0.0009  0.0000  0.0000  0.0014  0.0000  0.0000  0.0000  0.0000  0.0000 </r>
        <r>  0.0015  0.0013  0.0000  0.0004  0.0000  0.0000  0.0000  0.0000  0.0000 </r>
        <r>  0.0014  0.0009  0.0000  0.0004  0.0000  0.0000  0.0000  0.0000  0.0000 </r>
        <r>  0.0000  0.0000  0.0000  0.0020  0.0000  0.0000  0.0000  0.0000  0.0000 </r>
       </set>
       <set comment="band 27">
        <r>  0.0008  0.0000  0.0000  0.0001  0.0000  0.0000  0.0000  0.0000  0.0000 </r>
        <r>  0.0008  0.0000  0.0000  0.0000  0.0000  0.0000  0.0000  0.0000  0.0000 </r>
        <r>  0.0008  0.0000  0.0000  0.0002  0.0000  0.0000  0.0000  0.0000  0.0000 </r>
        <r>  0.0007  0.0000  0.0000  0.0000  0.0000  0.0000  0.0000  0.0000  0.0000 </r>
        <r>  0.0008  0.0000  0.0000  0.0001  0.0000  0.0000  0.0000  0.0000  0.0000 </r>
        <r>  0.0002  0.0000  0.0000  0.0002  0.0000  0.0000  0.0000  0.0000  0.0000 </r>
        <r>  0.0004  0.0000  0.0000  0.0001  0.0000  0.0000  0.0000  0.0000  0.0000 </r>
        <r>  0.0002  0.0000  0.0000  0.0001  0.0000  0.0000  0.0000  0.0000  0.0000 </r>
        <r>  0.0000  0.0006  0.0000  0.0001  0.0000  0.0000  0.0000  0.0000  0.0000 </r>
        <r>  0.0007  0.0001  0.0000  0.0001  0.0000  0.0000  0.0000  0.0000  0.0000 </r>
        <r>  0.0001  0.0000  0.0001  0.0008  0.0000  0.0000  0.0000  0.0000  0.0000 </r>
        <r>  0.0006  0.0002  0.0000  0.0001  0.0000  0.0000  0.0000  0.0000  0.0000 </r>
        <r>  0.0001  0.0005  0.0000  0.0001  0.0000  0.0000  0.0000  0.0000  0.0000 </r>
        <r>  0.0000  0.0000  0.0001  0.0016  0.0000  0.0000  0.0000  0.0000  0.0000 </r>
       </set>
       <set comment="band 28">
        <r>  0.0000  0.0009  0.0000  0.0010  0.0000  0.0000  0.0000  0.0000  0.0000 </r>
        <r>  0.0003  0.0008  0.0000  0.0008  0.0000  0.0000  0.0000  0.0000  0.0000 </r>
        <r>  0.0000  0.0006  0.0000  0.0000  0.0000  0.0000  0.0000  0.0000  0.0000 </r>
        <r>  0.0003  0.0009  0.0000  0.0008  0.0000  0.0000  0.0000  0.0000  0.0000 </r>
        <r>  0.0000  0.0010  0.0000  0.0010  0.0000  0.0000  0.0000  0.0000  0.0000 </r>
        <r>  0.0000  0.0000  0.0000  0.0000  0.0000  0.0000  0.0000  0.0000  0.0000 </r>
        <r>  0.0000  0.0000  0.0000  0.0000  0.0000  0.0000  0.0000  0.0000  0.0000 </r>
        <r>  0.0000  0.0007  0.0000  0.0000  0.0000  0.0000  0.0000  0.0000  0.0000 </r>
        <r>  0.0037  0.0051  0.0000  0.0000  0.0000  0.0000  0.0000  0.0000  0.0000 </r>
        <r>  0.0044  0.0023  0.0000  0.0004  0.0000  0.0000  0.0000  0.0000  0.0000 </r>
        <r>  0.0000  0.0010  0.0000  0.0000  0.0000  0.0000  0.0000  0.0000  0.0000 </r>
        <r>  0.0045  0.0023  0.0000  0.0004  0.0000  0.0000  0.0000  0.0000  0.0000 </r>
        <r>  0.0039  0.0053  0.0000  0.0000  0.0000  0.0000  0.0000  0.0000  0.0000 </r>
        <r>  0.0000  0.0073  0.0001  0.0000  0.0000  0.0000  0.0000  0.0000  0.0000 </r>
       </set>
       <set comment="band 29">
        <r>  0.0000  0.0000  0.0001  0.0000  0.0000  0.0000  0.0000  0.0000  0.0000 </r>
        <r>  0.0000  0.0000  0.0003  0.0000  0.0000  0.0000  0.0000  0.0000  0.0000 </r>
        <r>  0.0000  0.0000  0.0001  0.0000  0.0000  0.0000  0.0000  0.0000  0.0000 </r>
        <r>  0.0000  0.0000  0.0004  0.0000  0.0000  0.0000  0.0000  0.0000  0.0000 </r>
        <r>  0.0000  0.0000  0.0001  0.0000  0.0000  0.0000  0.0000  0.0000  0.0000 </r>
        <r>  0.0036  0.0000  0.0037  0.0014  0.0000  0.0000  0.0000  0.0000  0.0000 </r>
        <r>  0.0016  0.0000  0.0036  0.0009  0.0000  0.0000  0.0000  0.0000  0.0000 </r>
        <r>  0.0000  0.0000  0.0044  0.0000  0.0000  0.0000  0.0000  0.0000  0.0000 </r>
        <r>  0.0000  0.0000  0.0002  0.0000  0.0000  0.0000  0.0000  0.0000  0.0000 </r>
        <r>  0.0000  0.0000  0.0010  0.0000  0.0000  0.0000  0.0000  0.0000  0.0000 </r>
        <r>  0.0000  0.0000  0.0140  0.0000  0.0000  0.0000  0.0000  0.0000  0.0000 </r>
        <r>  0.0000  0.0000  0.0010  0.0000  0.0000  0.0000  0.0000  0.0000  0.0000 </r>
        <r>  0.0000  0.0001  0.0005  0.0000  0.0000  0.0000  0.0000  0.0000  0.0000 </r>
        <r>  0.0001  0.0000  0.0259  0.0000  0.0000  0.0000  0.0000  0.0000  0.0000 </r>
       </set>
       <set comment="band 30">
        <r>  0.0008  0.0004  0.0000  0.0002  0.0000  0.0000  0.0000  0.0000  0.0000 </r>
        <r>  0.0002  0.0001  0.0000  0.0000  0.0000  0.0000  0.0000  0.0000  0.0000 </r>
        <r>  0.0000  0.0000  0.0000  0.0003  0.0000  0.0000  0.0000  0.0000  0.0000 </r>
        <r>  0.0001  0.0001  0.0000  0.0000  0.0000  0.0000  0.0000  0.0000  0.0000 </r>
        <r>  0.0008  0.0003  0.0000  0.0001  0.0000  0.0000  0.0000  0.0000  0.0000 </r>
        <r>  0.0026  0.0000  0.0002  0.0000  0.0000  0.0000  0.0000  0.0000  0.0000 </r>
        <r>  0.0041  0.0000  0.0009  0.0001  0.0000  0.0000  0.0000  0.0000  0.0000 </r>
        <r>  0.0007  0.0000  0.0001  0.0040  0.0000  0.0000  0.0000  0.0000  0.0000 </r>
        <r>  0.0007  0.0018  0.0000  0.0001  0.0000  0.0000  0.0000  0.0000  0.0000 </r>
        <r>  0.0001  0.0001  0.0001  0.0004  0.0000  0.0000  0.0000  0.0000  0.0000 </r>
        <r>  0.0019  0.0000  0.0004  0.0001  0.0000  0.0000  0.0000  0.0000  0.0000 </r>
        <r>  0.0000  0.0000  0.0001  0.0004  0.0000  0.0000  0.0000  0.0000  0.0000 </r>
        <r>  0.0004  0.0013  0.0000  0.0001  0.0000  0.0000  0.0000  0.0000  0.0000 </r>
        <r>  0.0060  0.0000  0.0004  0.0006  0.0000  0.0000  0.0000  0.0000  0.0000 </r>
       </set>
       <set comment="band 31">
        <r>  0.0000  0.0005  0.0000  0.0000  0.0000  0.0000  0.0000  0.0000  0.0000 </r>
        <r>  0.0000  0.0007  0.0000  0.0001  0.0000  0.0000  0.0000  0.0000  0.0000 </r>
        <r>  0.0000  0.0000  0.0000  0.0000  0.0000  0.0000  0.0000  0.0000  0.0000 </r>
        <r>  0.0000  0.0007  0.0000  0.0001  0.0000  0.0000  0.0000  0.0000  0.0000 </r>
        <r>  0.0000  0.0004  0.0000  0.0000  0.0000  0.0000  0.0000  0.0000  0.0000 </r>
        <r>  0.0000  0.0000  0.0000  0.0000  0.0000  0.0000  0.0000  0.0000  0.0000 </r>
        <r>  0.0000  0.0000  0.0000  0.0000  0.0000  0.0000  0.0000  0.0000  0.0000 </r>
        <r>  0.0000  0.0000  0.0000  0.0000  0.0000  0.0000  0.0000  0.0000  0.0000 </r>
        <r>  0.0003  0.0017  0.0000  0.0003  0.0000  0.0000  0.0000  0.0000  0.0000 </r>
        <r>  0.0007  0.0028  0.0000  0.0004  0.0000  0.0000  0.0000  0.0000  0.0000 </r>
        <r>  0.0000  0.0001  0.0000  0.0000  0.0000  0.0000  0.0000  0.0000  0.0000 </r>
        <r>  0.0007  0.0028  0.0000  0.0004  0.0000  0.0000  0.0000  0.0000  0.0000 </r>
        <r>  0.0003  0.0017  0.0000  0.0003  0.0000  0.0000  0.0000  0.0000  0.0000 </r>
        <r>  0.0000  0.0002  0.0000  0.0000  0.0000  0.0000  0.0000  0.0000  0.0000 </r>
       </set>
       <set comment="band 32">
        <r>  0.0000  0.0000  0.0000  0.0000  0.0000  0.0000  0.0000  0.0000  0.0000 </r>
        <r>  0.0000  0.0000  0.0001  0.0000  0.0000  0.0000  0.0000  0.0000  0.0000 </r>
        <r>  0.0000  0.0000  0.0000  0.0000  0.0000  0.0000  0.0000  0.0000  0.0000 </r>
        <r>  0.0000  0.0000  0.0000  0.0000  0.0000  0.0000  0.0000  0.0000  0.0000 </r>
        <r>  0.0000  0.0000  0.0001  0.0000  0.0000  0.0000  0.0000  0.0000  0.0000 </r>
        <r>  0.0000  0.0001  0.0000  0.0000  0.0000  0.0000  0.0000  0.0000  0.0000 </r>
        <r>  0.0000  0.0001  0.0000  0.0000  0.0000  0.0000  0.0000  0.0000  0.0000 </r>
        <r>  0.0000  0.0000  0.0000  0.0000  0.0000  0.0000  0.0000  0.0000  0.0000 </r>
        <r>  0.0000  0.0000  0.0032  0.0000  0.0000  0.0000  0.0000  0.0000  0.0000 </r>
        <r>  0.0000  0.0000  0.0026  0.0000  0.0000  0.0000  0.0000  0.0000  0.0000 </r>
        <r>  0.0000  0.0000  0.0000  0.0000  0.0000  0.0000  0.0000  0.0000  0.0000 </r>
        <r>  0.0000  0.0000  0.0027  0.0000  0.0000  0.0000  0.0000  0.0000  0.0000 </r>
        <r>  0.0000  0.0000  0.0031  0.0000  0.0000  0.0000  0.0000  0.0000  0.0000 </r>
        <r>  0.0000  0.0000  0.0000  0.0000  0.0000  0.0000  0.0000  0.0000  0.0000 </r>
       </set>
       <set comment="band 33">
        <r>  0.0010  0.0011  0.0000  0.0001  0.0000  0.0000  0.0000  0.0000  0.0000 </r>
        <r>  0.0004  0.0002  0.0000  0.0000  0.0000  0.0000  0.0000  0.0000  0.0000 </r>
        <r>  0.0002  0.0000  0.0000  0.0009  0.0000  0.0000  0.0000  0.0000  0.0000 </r>
        <r>  0.0003  0.0001  0.0000  0.0000  0.0000  0.0000  0.0000  0.0000  0.0000 </r>
        <r>  0.0009  0.0011  0.0000  0.0001  0.0000  0.0000  0.0000  0.0000  0.0000 </r>
        <r>  0.0000  0.0000  0.0000  0.0001  0.0000  0.0000  0.0000  0.0000  0.0000 </r>
        <r>  0.0000  0.0000  0.0000  0.0001  0.0000  0.0000  0.0000  0.0000  0.0000 </r>
        <r>  0.0001  0.0000  0.0000  0.0054  0.0000  0.0000  0.0000  0.0000  0.0000 </r>
        <r>  0.0016  0.0022  0.0000  0.0015  0.0000  0.0000  0.0000  0.0000  0.0000 </r>
        <r>  0.0008  0.0000  0.0000  0.0000  0.0000  0.0000  0.0000  0.0000  0.0000 </r>
        <r>  0.0014  0.0000  0.0001  0.0026  0.0000  0.0000  0.0000  0.0000  0.0000 </r>
        <r>  0.0007  0.0000  0.0000  0.0000  0.0000  0.0000  0.0000  0.0000  0.0000 </r>
        <r>  0.0018  0.0023  0.0000  0.0015  0.0000  0.0000  0.0000  0.0000  0.0000 </r>
        <r>  0.0006  0.0000  0.0000  0.0035  0.0000  0.0000  0.0000  0.0000  0.0000 </r>
       </set>
      </set>
     </set>
    </set>
   </array>
  </projected>
 </calculation>
 <structure name="finalpos" >
  <crystal>
   <varray name="basis" >
    <v>      15.00000000       0.00000000       0.00000000 </v>
    <v>       0.00000000      15.00000000       0.00000000 </v>
    <v>       0.00000000       0.00000000      15.00000000 </v>
   </varray>
   <i name="volume">   3375.00000000 </i>
   <varray name="rec_basis" >
    <v>       0.06666667       0.00000000       0.00000000 </v>
    <v>       0.00000000       0.06666667       0.00000000 </v>
    <v>       0.00000000       0.00000000       0.06666667 </v>
   </varray>
  </crystal>
  <varray name="positions" >
   <v>       0.43345454       0.35648954       0.49586537 </v>
   <v>       0.60025984       0.35617101       0.49723369 </v>
   <v>       0.68329340       0.49998587       0.49664205 </v>
   <v>       0.60025644       0.64379853       0.49710613 </v>
   <v>       0.43343273       0.64347869       0.49576813 </v>
   <v>       0.30680543       0.49884698       0.55145562 </v>
   <v>       0.31515852       0.49599907       0.42929441 </v>
   <v>       0.42484707       0.49999523       0.49657148 </v>
   <v>       0.47089311       0.41894144       0.49638009 </v>
   <v>       0.56399912       0.41932651       0.49657387 </v>
   <v>       0.61057478       0.49997970       0.49634337 </v>
   <v>       0.56399208       0.58064777       0.49645263 </v>
   <v>       0.47087827       0.58101857       0.49624935 </v>
   <v>       0.33206666       0.50006664       0.49166667 </v>
  </varray>
  <varray name="selective"  type="logical" >
   <v type="logical" >  F  F  F </v>
   <v type="logical" >  F  F  F </v>
   <v type="logical" >  F  F  F </v>
   <v type="logical" >  F  F  F </v>
   <v type="logical" >  F  F  F </v>
   <v type="logical" >  F  F  F </v>
   <v type="logical" >  F  F  F </v>
   <v type="logical" >  F  F  F </v>
   <v type="logical" >  F  F  F </v>
   <v type="logical" >  F  F  F </v>
   <v type="logical" >  F  F  F </v>
   <v type="logical" >  F  F  F </v>
   <v type="logical" >  F  F  F </v>
   <v type="logical" >  F  F  F </v>
  </varray>
  <nose>
   <v>      -3.00000000       0.00000000       0.00010000       0.00010000 </v>
  </nose>
 </structure>
</modeling>
