scf                                     
           1
    15.000000    0.000000    0.000000
     0.000000   15.000000    0.000000
     0.000000    0.000000   15.000000
   H    C    O 
   7   6   1
Direct configuration=     1
   0.43345454  0.35648954  0.49586537
   0.60025984  0.35617101  0.49723369
   0.68329340  0.49998587  0.49664205
   0.60025644  0.64379853  0.49710613
   0.43343273  0.64347869  0.49576813
   0.30680543  0.49884698  0.55145562
   0.31515852  0.49599907  0.42929441
   0.42484707  0.49999523  0.49657148
   0.47089311  0.41894144  0.49638009
   0.56399912  0.41932651  0.49657387
   0.61057478  0.49997970  0.49634337
   0.56399208  0.58064777  0.49645263
   0.47087827  0.58101857  0.49624935
   0.33206666  0.50006664  0.49166667
